 vasp.5.4.4.18Apr17-6-g9f103f2a35 (build Dec 02 2020 12:53:39) complex          
  
 executed on             LinuxIFC date 2021.07.31  13:54:17
 running on   64 total cores
 distrk:  each k-point on   64 cores,    1 groups
 distr:  one band on NCORES_PER_BAND=   1 cores,   64 groups


--------------------------------------------------------------------------------------------------------


 INCAR:
 POTCAR:    PAW_PBE Na_pv 19Sep2006               
 POTCAR:    PAW_PBE Mg_pv 13Apr2007               
 POTCAR:    PAW_PBE Mn_pv 02Aug2007               
 POTCAR:    PAW_PBE O 08Apr2002                   

 ----------------------------------------------------------------------------- 
|                                                                             |
|           W    W    AA    RRRRR   N    N  II  N    N   GGGG   !!!           |
|           W    W   A  A   R    R  NN   N  II  NN   N  G    G  !!!           |
|           W    W  A    A  R    R  N N  N  II  N N  N  G       !!!           |
|           W WW W  AAAAAA  RRRRR   N  N N  II  N  N N  G  GGG   !            |
|           WW  WW  A    A  R   R   N   NN  II  N   NN  G    G                |
|           W    W  A    A  R    R  N    N  II  N    N   GGGG   !!!           |
|                                                                             |
|      For optimal performance we recommend to set                            |
|        NCORE= 4 - approx SQRT( number of cores)                             |
|      NCORE specifies how many cores store one orbital (NPAR=cpu/NCORE).     |
|      This setting can  greatly improve the performance of VASP for DFT.     |
|      The default,   NCORE=1            might be grossly inefficient         |
|      on modern multi-core architectures or massively parallel machines.     |
|      Do your own testing !!!!                                               |
|      Unfortunately you need to use the default for GW and RPA calculations. |
|      (for HF NCORE is supported but not extensively tested yet)             |
|                                                                             |
 ----------------------------------------------------------------------------- 

 POTCAR:    PAW_PBE Na_pv 19Sep2006               
   VRHFIN =Na: p6s1                                                             
   LEXCH  = PE                                                                  
   EATOM  =   766.0439 eV,   56.3026 Ry                                         
                                                                                
   TITEL  = PAW_PBE Na_pv 19Sep2006                                             
   LULTRA =        F    use ultrasoft PP ?                                      
   IUNSCR =        1    unscreen: 0-lin 1-nonlin 2-no                           
   RPACOR =    1.800    partial core radius                                     
   POMASS =   22.990; ZVAL   =    7.000    mass and valenz                      
   RCORE  =    2.200    outmost cutoff radius                                   
   RWIGS  =    2.200; RWIGS  =    1.164    wigner-seitz radius (au A)           
   ENMAX  =  259.561; ENMIN  =  194.671 eV                                      
   ICORE  =        2    local potential                                         
   LCOR   =        T    correct aug charges                                     
   LPAW   =        T    paw PP                                                  
   EAUG   =  368.056                                                            
   DEXC   =    0.000                                                            
   RMAX   =    2.245    core radius for proj-oper                               
   RAUG   =    1.300    factor for augmentation sphere                          
   RDEP   =    2.259    radius for radial grids                                 
   RDEPT  =    1.738    core radius for aug-charge                              
                                                                                
   Atomic configuration                                                         
    5 entries                                                                   
     n  l   j            E        occ.                                          
     1  0  0.50     -1033.6933   2.0000                                         
     2  0  0.50       -56.7526   2.0000                                         
     2  1  1.50       -28.6721   6.0000                                         
     3  0  0.50        -2.7440   1.0000                                         
     3  2  1.50        -1.3606   0.0000                                         
   Description                                                                  
     l       E           TYP  RCUT    TYP  RCUT                                 
     1    -28.6720912     23  2.000                                             
     1      6.8029130     23  2.000                                             
     0     -2.7439560     23  2.200                                             
     0     34.0145650     23  2.200                                             
     2     -1.3605826     23  2.200                                             
  local pseudopotential read in
  partial core-charges read in
  partial kinetic energy density read in
  atomic valenz-charges read in
  non local Contribution for L=           1  read in
    real space projection operators read in
  non local Contribution for L=           1  read in
    real space projection operators read in
  non local Contribution for L=           0  read in
    real space projection operators read in
  non local Contribution for L=           0  read in
    real space projection operators read in
    PAW grid and wavefunctions read in
 
   number of l-projection  operators is LMAX  =           4
   number of lm-projection operators is LMMAX =           8
 
 POTCAR:    PAW_PBE Mg_pv 13Apr2007               
   VRHFIN =Mg: p6s2                                                             
   LEXCH  = PE                                                                  
   EATOM  =  1056.7344 eV,   77.6678 Ry                                         
                                                                                
   TITEL  = PAW_PBE Mg_pv 13Apr2007                                             
   LULTRA =        F    use ultrasoft PP ?                                      
   IUNSCR =        1    unscreen: 0-lin 1-nonlin 2-no                           
   RPACOR =    1.500    partial core radius                                     
   POMASS =   24.305; ZVAL   =    8.000    mass and valenz                      
   RCORE  =    2.000    outmost cutoff radius                                   
   RWIGS  =    2.000; RWIGS  =    1.058    wigner-seitz radius (au A)           
   ENMAX  =  403.929; ENMIN  =  302.947 eV                                      
   RCLOC  =    1.506    cutoff for local pot                                    
   LCOR   =        T    correct aug charges                                     
   LPAW   =        T    paw PP                                                  
   EAUG   =  758.780                                                            
   DEXC   =    0.000                                                            
   RMAX   =    2.045    core radius for proj-oper                               
   RAUG   =    1.300    factor for augmentation sphere                          
   RDEP   =    2.025    radius for radial grids                                 
   RDEPT  =    1.557    core radius for aug-charge                              
                                                                                
   Atomic configuration                                                         
    5 entries                                                                   
     n  l   j            E        occ.                                          
     1  0  0.50     -1259.6230   2.0000                                         
     2  0  0.50       -79.8442   2.0000                                         
     2  1  1.50       -46.6121   6.0000                                         
     3  0  0.50        -4.7055   2.0000                                         
     3  2  1.50        -1.3606   0.0000                                         
   Description                                                                  
     l       E           TYP  RCUT    TYP  RCUT                                 
     1    -46.6121073     23  1.600                                             
     1      2.7211652     23  1.600                                             
     0     -4.7054661     23  2.000                                             
     0     61.2262170     23  2.000                                             
     2     -1.3605826     23  2.000                                             
  local pseudopotential read in
  partial core-charges read in
  partial kinetic energy density read in
  atomic valenz-charges read in
  non local Contribution for L=           1  read in
    real space projection operators read in
  non local Contribution for L=           1  read in
    real space projection operators read in
  non local Contribution for L=           0  read in
    real space projection operators read in
  non local Contribution for L=           0  read in
    real space projection operators read in
  non local Contribution for L=           2  read in
    real space projection operators read in
    PAW grid and wavefunctions read in
 
   number of l-projection  operators is LMAX  =           5
   number of lm-projection operators is LMMAX =          13
 
 POTCAR:    PAW_PBE Mn_pv 02Aug2007               
   VRHFIN =Mn: 3p4s3d                                                           
   LEXCH  = PE                                                                  
   EATOM  =  2025.2664 eV,  148.8529 Ry                                         
                                                                                
   TITEL  = PAW_PBE Mn_pv 02Aug2007                                             
   LULTRA =        F    use ultrasoft PP ?                                      
   IUNSCR =        1    unscreen: 0-lin 1-nonlin 2-no                           
   RPACOR =    2.080    partial core radius                                     
   POMASS =   54.938; ZVAL   =   13.000    mass and valenz                      
   RCORE  =    2.300    outmost cutoff radius                                   
   RWIGS  =    2.500; RWIGS  =    1.323    wigner-seitz radius (au A)           
   ENMAX  =  269.864; ENMIN  =  202.398 eV                                      
   ICORE  =        3    local potential                                         
   LCOR   =        T    correct aug charges                                     
   LPAW   =        T    paw PP                                                  
   EAUG   =  569.085                                                            
   DEXC   =    0.000                                                            
   RMAX   =    2.343    core radius for proj-oper                               
   RAUG   =    1.300    factor for augmentation sphere                          
   RDEP   =    2.338    radius for radial grids                                 
   RDEPT  =    1.798    core radius for aug-charge                              
                                                                                
   Atomic configuration                                                         
    8 entries                                                                   
     n  l   j            E        occ.                                          
     1  0  0.50     -6424.8287   2.0000                                         
     2  0  0.50      -739.1154   2.0000                                         
     2  1  1.50      -625.3949   6.0000                                         
     3  0  0.50       -81.6100   2.0000                                         
     3  1  1.50       -50.4667   6.0000                                         
     3  2  2.50        -3.3745   6.0000                                         
     4  0  0.50        -4.1331   1.0000                                         
     4  3  2.50        -1.3606   0.0000                                         
   Description                                                                  
     l       E           TYP  RCUT    TYP  RCUT                                 
     1    -50.4666628     23  2.000                                             
     1     -1.3605826     23  2.000                                             
     2     -3.3744729     23  2.300                                             
     2     -4.7350555     23  2.300                                             
     0     -4.1331431     23  2.300                                             
     0      7.6656591     23  2.300                                             
     3      9.5240782     23  2.300                                             
  local pseudopotential read in
  partial core-charges read in
  partial kinetic energy density read in
  atomic valenz-charges read in
  non local Contribution for L=           1  read in
    real space projection operators read in
  non local Contribution for L=           1  read in
    real space projection operators read in
  non local Contribution for L=           2  read in
    real space projection operators read in
  non local Contribution for L=           2  read in
    real space projection operators read in
  non local Contribution for L=           0  read in
    real space projection operators read in
  non local Contribution for L=           0  read in
    real space projection operators read in
    PAW grid and wavefunctions read in
 
   number of l-projection  operators is LMAX  =           6
   number of lm-projection operators is LMMAX =          18
 
 POTCAR:    PAW_PBE O 08Apr2002                   
   VRHFIN =O: s2p4                                                              
   LEXCH  = PE                                                                  
   EATOM  =   432.3788 eV,   31.7789 Ry                                         
                                                                                
   TITEL  = PAW_PBE O 08Apr2002                                                 
   LULTRA =        F    use ultrasoft PP ?                                      
   IUNSCR =        1    unscreen: 0-lin 1-nonlin 2-no                           
   RPACOR =    1.200    partial core radius                                     
   POMASS =   16.000; ZVAL   =    6.000    mass and valenz                      
   RCORE  =    1.520    outmost cutoff radius                                   
   RWIGS  =    1.550; RWIGS  =    0.820    wigner-seitz radius (au A)           
   ENMAX  =  400.000; ENMIN  =  300.000 eV                                      
   ICORE  =        2    local potential                                         
   LCOR   =        T    correct aug charges                                     
   LPAW   =        T    paw PP                                                  
   EAUG   =  605.392                                                            
   DEXC   =    0.000                                                            
   RMAX   =    1.553    core radius for proj-oper                               
   RAUG   =    1.300    factor for augmentation sphere                          
   RDEP   =    1.550    radius for radial grids                                 
   RDEPT  =    1.329    core radius for aug-charge                              
                                                                                
   Atomic configuration                                                         
    4 entries                                                                   
     n  l   j            E        occ.                                          
     1  0  0.50      -514.6923   2.0000                                         
     2  0  0.50       -23.9615   2.0000                                         
     2  1  0.50        -9.0305   4.0000                                         
     3  2  1.50        -9.5241   0.0000                                         
   Description                                                                  
     l       E           TYP  RCUT    TYP  RCUT                                 
     0    -23.9615318     23  1.200                                             
     0     -9.5240782     23  1.200                                             
     1     -9.0304911     23  1.520                                             
     1      8.1634956     23  1.520                                             
     2     -9.5240782      7  1.500                                             
  local pseudopotential read in
  partial core-charges read in
  partial kinetic energy density read in
  kinetic energy density of atom read in
  atomic valenz-charges read in
  non local Contribution for L=           0  read in
    real space projection operators read in
  non local Contribution for L=           0  read in
    real space projection operators read in
  non local Contribution for L=           1  read in
    real space projection operators read in
  non local Contribution for L=           1  read in
    real space projection operators read in
    PAW grid and wavefunctions read in
 
   number of l-projection  operators is LMAX  =           4
   number of lm-projection operators is LMMAX =           8
 
 Optimization of the real space projectors (new method)

 maximal supplied QI-value         = 17.01
 optimisation between [QCUT,QGAM] = [ 10.20, 20.41] = [ 29.16,116.64] Ry 
 Optimized for a Real-space Cutoff    1.30 Angstroem

   l    n(q)    QCUT    max X(q) W(low)/X(q) W(high)/X(q)  e(spline) 
   1      7    10.205     4.940    0.23E-03    0.84E-03    0.11E-06
   1      7    10.205     6.253    0.40E-03    0.13E-02    0.18E-06
   0      8    10.205    37.438    0.23E-03    0.37E-03    0.42E-07
   0      8    10.205     9.606    0.16E-03    0.26E-03    0.31E-07
 Optimization of the real space projectors (new method)

 maximal supplied QI-value         = 18.90
 optimisation between [QCUT,QGAM] = [ 10.20, 20.41] = [ 29.16,116.64] Ry 
 Optimized for a Real-space Cutoff    1.26 Angstroem

   l    n(q)    QCUT    max X(q) W(low)/X(q) W(high)/X(q)  e(spline) 
   1      7    10.205     2.974    0.63E-04    0.14E-03    0.13E-06
   1      7    10.205     4.279    0.11E-03    0.45E-03    0.24E-06
   0      8    10.205    16.381    0.44E-03    0.15E-03    0.55E-07
   0      8    10.205     5.611    0.31E-03    0.11E-03    0.40E-07
   2      7    10.205     4.652    0.50E-03    0.47E-03    0.57E-07
 Optimization of the real space projectors (new method)

 maximal supplied QI-value         = 16.25
 optimisation between [QCUT,QGAM] = [ 10.24, 20.48] = [ 29.35,117.42] Ry 
 Optimized for a Real-space Cutoff    1.34 Angstroem

   l    n(q)    QCUT    max X(q) W(low)/X(q) W(high)/X(q)  e(spline) 
   1      8    10.239     3.658    0.23E-03    0.30E-03    0.98E-07
   1      8    10.239     5.612    0.32E-03    0.65E-03    0.21E-06
   2      7    10.239    55.373    0.42E-03    0.45E-03    0.65E-07
   2      7    10.239    50.863    0.43E-03    0.48E-03    0.67E-07
   0      8    10.239    79.536    0.11E-03    0.21E-03    0.56E-07
   0      8    10.239    38.668    0.96E-04    0.19E-03    0.52E-07
 Optimization of the real space projectors (new method)

 maximal supplied QI-value         = 24.76
 optimisation between [QCUT,QGAM] = [ 10.15, 20.30] = [ 28.85,115.39] Ry 
 Optimized for a Real-space Cutoff    1.38 Angstroem

   l    n(q)    QCUT    max X(q) W(low)/X(q) W(high)/X(q)  e(spline) 
   0      8    10.150    20.381    0.22E-03    0.32E-03    0.29E-06
   0      8    10.150    15.268    0.23E-03    0.35E-03    0.30E-06
   1      8    10.150     5.964    0.46E-03    0.53E-03    0.21E-06
   1      8    10.150     5.382    0.38E-03    0.45E-03    0.19E-06
  PAW_PBE Na_pv 19Sep2006               :
 energy of atom  1       EATOM= -766.0439
 kinetic energy error for atom=    0.0103 (will be added to EATOM!!)
  PAW_PBE Mg_pv 13Apr2007               :
 energy of atom  2       EATOM=-1056.7344
 kinetic energy error for atom=    0.0820 (will be added to EATOM!!)
  PAW_PBE Mn_pv 02Aug2007               :
 energy of atom  3       EATOM=-2025.2664
 kinetic energy error for atom=    0.0284 (will be added to EATOM!!)
  PAW_PBE O 08Apr2002                   :
 energy of atom  4       EATOM= -432.3788
 kinetic energy error for atom=    0.1156 (will be added to EATOM!!)
 
 
 POSCAR: Na Mg Mn  O                             
  positions in cartesian coordinates
  No initial velocities read in

 METAGGA = SCAN     LMAXTAU =  6    LMIXTAU =  F

 exchange correlation table for  LEXCH =        8
   RHO(1)=    0.500       N(1)  =     2000
   RHO(2)=  100.500       N(2)  =     4000

 VTST: version 3.2, (02/03/18)

 CHAIN: initializing optimizer
 
 OPT: Using VASP Dynamics algorithm
 CHAIN: Read ICHAIN            0
 
 POSCAR: Na Mg Mn  O                             
  positions in cartesian coordinates
  No initial velocities read in
 


--------------------------------------------------------------------------------------------------------


 ion  position               nearest neighbor table
   1  0.306  0.628  0.255-  87 2.36  88 2.37  40 2.83  38 2.96
   2  0.122  0.639  0.749-  81 2.28  84 2.32  70 2.35
   3  0.937  0.943  0.746-  69 2.29  44 2.30  58 2.32  61 2.33  27 2.77  25 2.89
   4  0.266  0.998  0.749-  47 2.24  44 2.26  46 2.27  49 2.31
   5  0.964  0.450  0.248-  64 2.36  39 2.84  37 2.93
   6  0.651  0.450  0.248-  66 2.26  75 2.29
   7  0.761  0.596  0.743-  68 2.17  69 2.33  70 2.37  36 2.74  13 2.78  34 2.93
   8  0.966  0.280  0.741-  58 2.24  80 2.26  83 2.37
   9  0.769  0.786  0.256-  74 2.36
  10  0.276  0.285  0.247-  43 2.35  78 2.36  52 2.37
  11  0.124  0.916  0.255-  51 2.27  67 2.33  76 2.35
  12  0.457  0.746  0.753-  85 2.25  82 2.32
  13  0.442  0.416  0.755-  48 2.30  45 2.31  68 2.31   7 2.78  33 2.80  35 2.94
  14  0.607  0.141  0.746-  49 2.22  46 2.32
  15  0.463  0.067  0.249-  53 2.27  62 2.31  42 2.32  51 2.34
  16  0.811  0.111  0.255-  63 2.29  64 2.31  55 2.32  32 2.81  30 2.90
  17  0.625  0.276  0.005-  66 1.99  71 2.02  60 2.04  53 2.04  43 2.15  49 2.16  37 2.77
  18  0.610  0.286  0.506-  57 2.01  68 2.03  46 2.06  52 2.08  75 2.11  62 2.14  28 2.81  35 2.85

  19  0.116  0.277  0.999-  55 1.99  61 2.03  78 2.06  48 2.06  41 2.07  83 2.09  30 2.84  37 2.84

  20  0.115  0.282  0.499-  80 2.04  45 2.05  50 2.06  87 2.06  64 2.08  58 2.16
  21  0.123  0.778  0.999-  47 1.96  67 2.02  42 2.02  77 2.03  84 2.07  73 2.19  29 2.83  25 2.84
                            38 2.86
  22  0.116  0.783  0.505-  86 2.03  81 2.05  76 2.05  51 2.07  70 2.09  44 2.14  36 2.84  27 2.84

  23  0.612  0.770  0.005-  79 1.97  65 2.02  85 2.03  54 2.05  59 2.10  72 2.13  38 2.83
  24  0.617  0.774  0.498-  63 1.98  88 2.03  74 2.04  82 2.05  69 2.08  56 2.13  35 2.82
  25  0.958  0.940  0.003-  54 1.88  47 1.89  41 1.93  67 1.93  72 1.94  61 1.97  21 2.84  34 2.85
                            30 2.86  26 2.87   3 2.89
  26  0.289  0.115  0.001-  48 1.82  41 1.87  42 1.96  43 1.98  47 1.99  49 2.07  33 2.82  25 2.87
                            29 2.90
  27  0.949  0.944  0.500-  44 1.83  76 1.88  50 1.92  69 1.97  63 1.98  58 2.06   3 2.77  22 2.84
                            36 2.85  32 2.90  28 2.93
  28  0.286  0.122  0.499-  50 1.87  46 1.90  51 1.93  45 1.94  52 1.96  44 2.03  18 2.81  35 2.85
                            31 2.91  27 2.93
  29  0.449  0.940  0.995-  42 1.86  49 1.87  79 1.87  84 1.92  59 1.93  53 2.00  21 2.83  38 2.85
                            26 2.90  30 2.96
  30  0.789  0.100  0.997-  54 1.89  61 1.91  55 1.92  59 1.94  60 1.95  53 1.98  19 2.84  25 2.86
                            37 2.88  16 2.90  29 2.96
  31  0.451  0.951  0.500-  62 1.82  88 1.85  46 1.93  51 1.95  56 2.00  81 2.01  32 2.89  28 2.91
                            40 2.93
  32  0.784  0.113  0.505-  58 1.85  63 1.88  62 1.94  56 1.94  57 1.96  64 1.97  16 2.81  31 2.89
                            27 2.90  39 2.92
  33  0.454  0.439  0.004-  43 1.86  71 1.87  48 1.92  78 1.92  65 1.95  85 1.96  13 2.80  26 2.82
                            34 2.92  38 2.96
  34  0.791  0.611  0.003-  73 1.88  72 1.92  66 1.94  65 1.94  71 1.98  67 1.99  25 2.85  37 2.88
                            33 2.92   7 2.93
  35  0.446  0.450  0.495-  87 1.85  82 1.85  45 1.87  52 1.95  74 1.98  68 1.98  24 2.82  40 2.85
                            28 2.85  18 2.85  13 2.94  36 2.98
  36  0.789  0.616  0.500-  74 1.89  69 1.92  75 1.92  76 1.93  70 1.95  68 2.03   7 2.74  22 2.84
                            39 2.84  27 2.85  35 2.98
  37  0.943  0.432  0.987-  60 1.82  83 1.91  73 1.92  77 1.96  66 1.97  55 2.04  17 2.77  19 2.84
                            30 2.88  34 2.88   5 2.93  38 2.97
  38  0.286  0.612  0.992-  77 1.81  84 1.89  85 1.94  79 1.95  78 1.98  83 1.99  23 2.83  29 2.85
                            21 2.86   1 2.96  33 2.96  37 2.97
  39  0.949  0.449  0.501-  75 1.88  64 1.90  57 1.91  80 1.92  70 1.95  86 1.97   5 2.84  36 2.84
                            40 2.89  32 2.92
  40  0.282  0.613  0.507-  88 1.86  82 1.87  81 1.96  80 1.97  86 1.97  87 1.98   1 2.83  35 2.85
                            39 2.89  31 2.93
  41  0.126  0.103  0.090-  26 1.87  25 1.93  19 2.07
  42  0.300  0.951  0.087-  29 1.86  26 1.96  21 2.02  15 2.32
  43  0.444  0.284  0.101-  33 1.86  26 1.98  17 2.15  10 2.35
  44  0.104  0.965  0.597-  27 1.83  28 2.03  22 2.14   4 2.26   3 2.30
  45  0.297  0.292  0.589-  35 1.87  28 1.94  20 2.05  13 2.31
  46  0.434  0.103  0.594-  28 1.90  31 1.93  18 2.06   4 2.27  14 2.32
  47  0.117  0.944  0.911-  25 1.89  21 1.96  26 1.99   4 2.24
  48  0.296  0.272  0.914-  26 1.82  33 1.92  19 2.06  13 2.30
  49  0.448  0.092  0.899-  29 1.87  26 2.07  17 2.16  14 2.22   4 2.31
  50  0.119  0.103  0.412-  28 1.87  27 1.92  20 2.06
  51  0.290  0.960  0.408-  28 1.93  31 1.95  22 2.07  11 2.27  15 2.34
  52  0.441  0.286  0.398-  35 1.95  28 1.96  18 2.08  10 2.37
  53  0.622  0.096  0.094-  30 1.98  29 2.00  17 2.04  15 2.27
  54  0.799  0.946  0.088-  25 1.88  30 1.89  23 2.05
  55  0.941  0.265  0.092-  30 1.92  19 1.99  37 2.04  16 2.32
  56  0.618  0.955  0.600-  32 1.94  31 2.00  24 2.13
  57  0.787  0.285  0.590-  39 1.91  32 1.96  18 2.01
  58  0.929  0.104  0.602-  32 1.85  27 2.06  20 2.16   8 2.24   3 2.32
  59  0.617  0.949  0.904-  29 1.93  30 1.94  23 2.10
  60  0.793  0.268  0.907-  37 1.82  30 1.95  17 2.04
  61  0.949  0.098  0.905-  30 1.91  25 1.97  19 2.03   3 2.33
  62  0.612  0.099  0.415-  31 1.82  32 1.94  18 2.14  15 2.31
  63  0.782  0.954  0.413-  32 1.88  27 1.98  24 1.98  16 2.29
  64  0.936  0.285  0.407-  39 1.90  32 1.97  20 2.08  16 2.31   5 2.36
  65  0.622  0.602  0.095-  34 1.94  33 1.95  23 2.02
  66  0.796  0.449  0.094-  34 1.94  37 1.97  17 1.99   6 2.26
  67  0.957  0.780  0.099-  25 1.93  34 1.99  21 2.02  11 2.33
  68  0.609  0.460  0.599-  35 1.98  36 2.03  18 2.03   7 2.17  13 2.31
  69  0.793  0.775  0.598-  36 1.92  27 1.97  24 2.08   3 2.29   7 2.33
  70  0.940  0.603  0.601-  39 1.95  36 1.95  22 2.09   2 2.35   7 2.37
  71  0.615  0.445  0.915-  33 1.87  34 1.98  17 2.02
  72  0.798  0.775  0.909-  34 1.92  25 1.94  23 2.13
  73  0.930  0.592  0.902-  34 1.88  37 1.92  21 2.19
  74  0.627  0.605  0.405-  36 1.89  35 1.98  24 2.04   9 2.36
  75  0.797  0.458  0.408-  39 1.88  36 1.92  18 2.11   6 2.29
  76  0.943  0.785  0.407-  27 1.88  36 1.93  22 2.05  11 2.35
  77  0.121  0.593  0.074-  38 1.81  37 1.96  21 2.03
  78  0.296  0.453  0.091-  33 1.92  38 1.98  19 2.06  10 2.36
  79  0.443  0.781  0.086-  29 1.87  38 1.95  23 1.97
  80  0.109  0.450  0.597-  39 1.92  40 1.97  20 2.04   8 2.26
  81  0.289  0.781  0.601-  40 1.96  31 2.01  22 2.05   2 2.28
  82  0.437  0.597  0.588-  35 1.85  40 1.87  24 2.05  12 2.32
  83  0.113  0.451  0.896-  37 1.91  38 1.99  19 2.09   8 2.37
  84  0.295  0.774  0.900-  38 1.89  29 1.92  21 2.07   2 2.32
  85  0.446  0.597  0.907-  38 1.94  33 1.96  23 2.03  12 2.25
  86  0.119  0.614  0.408-  40 1.97  39 1.97  22 2.03
  87  0.295  0.458  0.406-  35 1.85  40 1.98  20 2.06   1 2.36
  88  0.435  0.780  0.423-  31 1.85  40 1.86  24 2.03   1 2.37
 
  LATTYP: Found a hexagonal cell.
 ALAT       =    10.0190000534
 C/A-ratio  =     1.1196726572
  
  Lattice vectors:
  
 A1 = (  10.0190000534,   0.0000000000,   0.0000000000)
 A2 = (  -5.0095000267,   8.6767085668,   0.0000000000)
 A3 = (   0.0000000000,   0.0000000000,  11.2180004120)


Analysis of symmetry for initial positions (statically):
=====================================================================
 Subroutine PRICEL returns:
 Original cell was already a primitive cell.
 

 Routine SETGRP: Setting up the symmetry group for a 
 hexagonal supercell.


 Subroutine GETGRP returns: Found  1 space group operations
 (whereof  1 operations were pure point group operations)
 out of a pool of 24 trial point group operations.


The static configuration has the point symmetry C_1 .


Analysis of symmetry for dynamics (positions and initial velocities):
=====================================================================
 Subroutine PRICEL returns:
 Original cell was already a primitive cell.
 

 Routine SETGRP: Setting up the symmetry group for a 
 hexagonal supercell.


 Subroutine GETGRP returns: Found  1 space group operations
 (whereof  1 operations were pure point group operations)
 out of a pool of 24 trial point group operations.


The dynamic configuration has the point symmetry C_1 .


Analysis of structural, dynamic, and magnetic symmetry:
=====================================================================
 Subroutine PRICEL returns:
 Original cell was already a primitive cell.
 

 Routine SETGRP: Setting up the symmetry group for a 
 hexagonal supercell.


 Subroutine GETGRP returns: Found  1 space group operations
 (whereof  1 operations were pure point group operations)
 out of a pool of 24 trial point group operations.


The magnetic configuration has the point symmetry C_1 .


 Subroutine INISYM returns: Found  1 space group operations
 (whereof  1 operations are pure point group operations),
 and found     1 'primitive' translations

 
 

Automatic generation of k-mesh.
 generate k-points for:    2    2    2
Space group operators:
 irot       det(A)        alpha          n_x          n_y          n_z        tau_x        tau_y        tau_z
    1     1.000000     0.000000     1.000000     0.000000     0.000000     0.000000     0.000000     0.000000
 
 Subroutine IBZKPT returns following result:
 ===========================================
 
 Found      8 irreducible k-points:
 
 Following reciprocal coordinates:
            Coordinates               Weight
  0.000000  0.000000  0.000000      1.000000
  0.500000 -0.000000 -0.000000      1.000000
  0.000000  0.500000  0.000000      1.000000
  0.500000  0.500000 -0.000000      1.000000
  0.000000  0.000000  0.500000      1.000000
  0.500000 -0.000000  0.500000      1.000000
  0.000000  0.500000  0.500000      1.000000
  0.500000  0.500000  0.500000      1.000000
 
 Following cartesian coordinates:
            Coordinates               Weight
  0.000000  0.000000  0.000000      1.000000
  0.049905  0.028813 -0.000000      1.000000
  0.000000  0.057626  0.000000      1.000000
  0.049905  0.086438 -0.000000      1.000000
  0.000000  0.000000  0.044571      1.000000
  0.049905  0.028813  0.044571      1.000000
  0.000000  0.057626  0.044571      1.000000
  0.049905  0.086438  0.044571      1.000000
 


--------------------------------------------------------------------------------------------------------




 Dimension of arrays:
   k-points           NKPTS =      8   k-points in BZ     NKDIM =      8   number of bands    NBANDS=    448
   number of dos      NEDOS =    301   number of ions     NIONS =     88
   non local maximal  LDIM  =      6   non local SUM 2l+1 LMDIM =     18
   total plane-waves  NPLWV = 140000
   max r-space proj   IRMAX =   1632   max aug-charges    IRDMAX=   4555
   dimension x,y,z NGX =    50 NGY =   50 NGZ =   56
   dimension x,y,z NGXF=   100 NGYF=  100 NGZF=  112
   support grid    NGXF=   100 NGYF=  100 NGZF=  112
   ions per type =              16   8  16  48
   NGX,Y,Z   is equivalent  to a cutoff of   8.30,  8.30,  8.30 a.u.
   NGXF,Y,Z  is equivalent  to a cutoff of  16.59, 16.59, 16.60 a.u.

 SYSTEM =  unknown system                          
 POSCAR =  Na Mg Mn  O                             

 Startparameter for this run:
   NWRITE =      2    write-flag & timer
   PREC   = normal    normal or accurate (medium, high low for compatibility)
   ISTART =      0    job   : 0-new  1-cont  2-samecut
   ICHARG =      1    charge: 1-file 2-atom 10-const
   ISPIN  =      2    spin polarized calculation?
   LNONCOLLINEAR =      F non collinear calculations
   LSORBIT =      F    spin-orbit coupling
   INIWAV =      1    electr: 0-lowe 1-rand  2-diag
   LASPH  =      T    aspherical Exc in radial PAW
   METAGGA=      F    non-selfconsistent MetaGGA calc.

 Electronic Relaxation 1
   ENCUT  =  400.0 eV  29.40 Ry    5.42 a.u.  16.34 16.34 18.29*2*pi/ulx,y,z
   ENINI  =  400.0     initial cutoff
   ENAUG  =  758.8 eV  augmentation charge cutoff
   NELM   =    200;   NELMIN=  6; NELMDL=-12     # of ELM steps 
   EDIFF  = 0.1E-04   stopping-criterion for ELM
   LREAL  =      T    real-space projection
   NLSPLINE    = F    spline interpolate recip. space projectors
   LCOMPAT=      F    compatible to vasp.4.4
   GGA_COMPAT  = T    GGA compatible to vasp.4.4-vasp.4.6
   LMAXPAW     = -100 max onsite density
   LMAXMIX     =    4 max onsite mixed and CHGCAR
   VOSKOWN=      0    Vosko Wilk Nusair interpolation
   ROPT   =   -0.00050  -0.00050  -0.00050  -0.00050
 Ionic relaxation
   EDIFFG = 0.1E-03   stopping-criterion for IOM
   NSW    =      1    number of steps for IOM
   NBLOCK =      1;   KBLOCK =      1    inner block; outer block 
   IBRION =     -1    ionic relax: 0-MD 1-quasi-New 2-CG
   NFREE  =      0    steps in history (QN), initial steepest desc. (CG)
   ISIF   =      2    stress and relaxation
   IWAVPR =     10    prediction:  0-non 1-charg 2-wave 3-comb
   ISYM   =      2    0-nonsym 1-usesym 2-fastsym
   LCORR  =      T    Harris-Foulkes like correction to forces

   POTIM  = 0.5000    time-step for ionic-motion
   TEIN   =    0.0    initial temperature
   TEBEG  =    0.0;   TEEND  =   0.0 temperature during run
   SMASS  =  -3.00    Nose mass-parameter (am)
   estimated Nose-frequenzy (Omega)   =  0.10E-29 period in steps =****** mass=  -0.229E-26a.u.
   SCALEE = 1.0000    scale energy and forces
   NPACO  =    256;   APACO  = 16.0  distance and # of slots for P.C.
   PSTRESS=    0.0 pullay stress

  Mass of Ions in am
   POMASS =  22.99 24.30 54.94 16.00
  Ionic Valenz
   ZVAL   =   7.00  8.00 13.00  6.00
  Atomic Wigner-Seitz radii
   RWIGS  =  -1.00 -1.00 -1.00 -1.00
  virtual crystal weights 
   VCA    =   1.00  1.00  1.00  1.00
   NELECT =     672.0000    total number of electrons
   NUPDOWN=      48.0000    fix difference up-down

 DOS related values:
   EMIN   =  10.00;   EMAX   =-10.00  energy-range for DOS
   EFERMI =   0.00
   ISMEAR =     0;   SIGMA  =   0.05  broadening in eV -4-tet -1-fermi 0-gaus

 Electronic relaxation 2 (details)
   IALGO  =     48    algorithm
   LDIAG  =      T    sub-space diagonalisation (order eigenvalues)
   LSUBROT=      F    optimize rotation matrix (better conditioning)
   TURBO    =      0    0=normal 1=particle mesh
   IRESTART =      0    0=no restart 2=restart with 2 vectors
   NREBOOT  =      0    no. of reboots
   NMIN     =      0    reboot dimension
   EREF     =   0.00    reference energy to select bands
   IMIX   =      4    mixing-type and parameters
     AMIX     =   0.40;   BMIX     =  1.00
     AMIX_MAG =   1.60;   BMIX_MAG =  1.00
     AMIN     =   0.10
     WC   =   100.;   INIMIX=   1;  MIXPRE=   1;  MAXMIX= -45

 Intra band minimization:
   WEIMIN = 0.0000     energy-eigenvalue tresh-hold
   EBREAK =  0.56E-08  absolut break condition
   DEPER  =   0.30     relativ break condition  

   TIME   =   0.40     timestep for ELM

  volume/ion in A,a.u.               =      11.08        74.78
  Fermi-wavevector in a.u.,A,eV,Ry     =   1.445993  2.732531 28.448379  2.090897
  Thomas-Fermi vector in A             =   2.564112
 
 Write flags
   LWAVE        =      F    write WAVECAR
   LDOWNSAMPLE  =      F    k-point downsampling of WAVECAR
   LCHARG       =      F    write CHGCAR
   LVTOT        =      F    write LOCPOT, total local potential
   LVHAR        =      F    write LOCPOT, Hartree potential only
   LELF         =      F    write electronic localiz. function (ELF)
   LORBIT       =     11    0 simple, 1 ext, 2 COOP (PROOUT), +10 PAW based schemes


 Dipole corrections
   LMONO  =      F    monopole corrections only (constant potential shift)
   LDIPOL =      F    correct potential (dipole corrections)
   IDIPOL =      0    1-x, 2-y, 3-z, 4-all directions 
   EPSILON=  1.0000000 bulk dielectric constant

 Exchange correlation treatment:
   GGA     =    --    GGA type
   LEXCH   =     8    internal setting for exchange type
   VOSKOWN=      0    Vosko Wilk Nusair interpolation
   LHFCALC =     F    Hartree Fock is set to
   LHFONE  =     F    Hartree Fock one center treatment
   AEXX    =    0.0000 exact exchange contribution

 Linear response parameters
   LEPSILON=     F    determine dielectric tensor
   LRPA    =     F    only Hartree local field effects (RPA)
   LNABLA  =     F    use nabla operator in PAW spheres
   LVEL    =     F    velocity operator in full k-point grid
   LINTERFAST=   F  fast interpolation
   KINTER  =     0    interpolate to denser k-point grid
   CSHIFT  =0.1000    complex shift for real part using Kramers Kronig
   OMEGAMAX=  -1.0    maximum frequency
   DEG_THRESHOLD= 0.2000000E-02 threshold for treating states as degnerate
   RTIME   =   -0.100 relaxation time in fs
  (WPLASMAI=    0.000 imaginary part of plasma frequency in eV, 0.658/RTIME)
   DFIELD  = 0.0000000 0.0000000 0.0000000 field for delta impulse in time
 
 Orbital magnetization related:
   ORBITALMAG=     F  switch on orbital magnetization
   LCHIMAG   =     F  perturbation theory with respect to B field
   DQ        =  0.001000  dq finite difference perturbation B field
   LLRAUG    =     F  two centre corrections for induced B field



--------------------------------------------------------------------------------------------------------


 Static calculation
 charge density and potential will be updated during run
 spin polarized calculation
 RMM-DIIS sequential band-by-band
 perform sub-space diagonalisation
    before iterative eigenvector-optimisation
 modified Broyden-mixing scheme, WC =      100.0
 initial mixing is a Kerker type mixing with AMIX =  0.4000 and BMIX =      1.0000
 Hartree-type preconditioning will be used
 using additional bands          112
 real space projection scheme for non local part
 use partial core corrections
 calculate Harris-corrections to forces 
   (improved forces if not selfconsistent)
 use gradient corrections 
 use of overlap-Matrix (Vanderbilt PP)
 Gauss-broadening in eV      SIGMA  =   0.05


--------------------------------------------------------------------------------------------------------


  energy-cutoff  :      400.00
  volume of cell :      975.20
      direct lattice vectors                 reciprocal lattice vectors
    10.019000053  0.000000000  0.000000000     0.099810360  0.057625538 -0.000000000
    -5.009500027  8.676708567  0.000000000     0.000000000  0.115251076  0.000000000
     0.000000000  0.000000000 11.218000412     0.000000000  0.000000000  0.089142446

  length of vectors
    10.019000053 10.019000053 11.218000412     0.115251076  0.115251076  0.089142446


 
 k-points in units of 2pi/SCALE and weight: read from INCAR                         
   0.00000000  0.00000000  0.00000000       0.125
   0.04990518  0.02881277 -0.00000000       0.125
   0.00000000  0.05762554  0.00000000       0.125
   0.04990518  0.08643831 -0.00000000       0.125
   0.00000000  0.00000000  0.04457122       0.125
   0.04990518  0.02881277  0.04457122       0.125
   0.00000000  0.05762554  0.04457122       0.125
   0.04990518  0.08643831  0.04457122       0.125
 
 k-points in reciprocal lattice and weights: read from INCAR                         
   0.00000000  0.00000000  0.00000000       0.125
   0.50000000 -0.00000000 -0.00000000       0.125
   0.00000000  0.50000000  0.00000000       0.125
   0.50000000  0.50000000 -0.00000000       0.125
   0.00000000  0.00000000  0.50000000       0.125
   0.50000000 -0.00000000  0.50000000       0.125
   0.00000000  0.50000000  0.50000000       0.125
   0.50000000  0.50000000  0.50000000       0.125
 
 position of ions in fractional coordinates (direct lattice) 
   0.30604811  0.62772651  0.25526296
   0.12171690  0.63904614  0.74851397
   0.93731808  0.94256710  0.74646013
   0.26631506  0.99830334  0.74877605
   0.96400215  0.45041174  0.24787127
   0.65137016  0.44970509  0.24782937
   0.76103153  0.59562332  0.74293900
   0.96586285  0.27974647  0.74058564
   0.76896376  0.78577262  0.25573631
   0.27567935  0.28509461  0.24656266
   0.12426820  0.91592236  0.25482171
   0.45666463  0.74580815  0.75286144
   0.44169578  0.41607746  0.75529949
   0.60712774  0.14069522  0.74568994
   0.46304439  0.06650119  0.24869316
   0.81138890  0.11124972  0.25509002
   0.62495642  0.27589148  0.00516418
   0.61041956  0.28633669  0.50581920
   0.11576969  0.27732060  0.99863200
   0.11483742  0.28172434  0.49875466
   0.12268176  0.77783182  0.99869848
   0.11584439  0.78340651  0.50500890
   0.61165483  0.77018260  0.00491839
   0.61671944  0.77434317  0.49823942
   0.95771567  0.93996473  0.00340183
   0.28864609  0.11465119  0.00079886
   0.94898028  0.94416678  0.49959795
   0.28634583  0.12161870  0.49892760
   0.44873511  0.94013876  0.99467816
   0.78910729  0.10046033  0.99712066
   0.45077568  0.95107147  0.49951861
   0.78387077  0.11266219  0.50474414
   0.45445254  0.43924144  0.00414901
   0.79092221  0.61097707  0.00316680
   0.44570534  0.44978576  0.49481546
   0.78872460  0.61621754  0.49963004
   0.94340884  0.43210164  0.98737404
   0.28566374  0.61171814  0.99193171
   0.94897880  0.44883494  0.50092617
   0.28168311  0.61347341  0.50680690
   0.12570227  0.10329954  0.09040292
   0.30027978  0.95144288  0.08744999
   0.44385899  0.28393716  0.10134783
   0.10448396  0.96486571  0.59701460
   0.29707677  0.29153451  0.58908181
   0.43364635  0.10289904  0.59396414
   0.11655681  0.94407280  0.91052769
   0.29618326  0.27200522  0.91434299
   0.44843814  0.09234688  0.89889460
   0.11878876  0.10265068  0.41207790
   0.28970573  0.95982866  0.40793990
   0.44096751  0.28608314  0.39817524
   0.62208420  0.09632731  0.09412551
   0.79882783  0.94639108  0.08832804
   0.94100356  0.26503137  0.09248351
   0.61843331  0.95488439  0.59953287
   0.78721870  0.28504127  0.58957120
   0.92890830  0.10370142  0.60175608
   0.61661200  0.94866867  0.90380635
   0.79273113  0.26847853  0.90720268
   0.94866510  0.09809676  0.90477800
   0.61216060  0.09882964  0.41499374
   0.78212992  0.95447444  0.41311016
   0.93643481  0.28524411  0.40721428
   0.62246297  0.60193563  0.09549741
   0.79644620  0.44936510  0.09386254
   0.95652788  0.77972309  0.09948386
   0.60931562  0.45971119  0.59930823
   0.79250711  0.77530667  0.59780083
   0.93985121  0.60268476  0.60092973
   0.61469702  0.44470896  0.91527007
   0.79762847  0.77482377  0.90913707
   0.93032981  0.59160682  0.90199676
   0.62746496  0.60450572  0.40529416
   0.79733643  0.45830397  0.40831608
   0.94346876  0.78521480  0.40710286
   0.12128376  0.59292184  0.07373364
   0.29605770  0.45279151  0.09059725
   0.44280101  0.78066699  0.08609458
   0.10854471  0.44976732  0.59666516
   0.28908241  0.78149450  0.60096093
   0.43673060  0.59749154  0.58790870
   0.11321282  0.45054181  0.89638078
   0.29486777  0.77398128  0.90016934
   0.44570413  0.59677007  0.90678371
   0.11925175  0.61360480  0.40833480
   0.29451479  0.45808038  0.40630681
   0.43546647  0.78047222  0.42348011
 
 position of ions in cartesian coordinates  (Angst):
  -0.07829995  5.44660000  2.86354000
  -1.98182005  5.54481713  8.39683000
   4.66919995  8.17838000  8.37379000
  -2.33279005  8.66198713  8.39977000
   7.40199997  3.90809143  2.78062000
   4.27328000  3.90196000  2.78015000
   4.64099989  5.16805000  8.33429000
   8.27559003  2.42727857  8.30789000
   3.76792000  6.81792000  2.86885000
   1.33385000  2.47368287  2.76594000
  -3.34327003  7.94719143  2.85859000
   0.83919700  6.47116000  8.44560000
   2.34101000  3.61018287  8.47295000
   5.37800019  1.22077143  8.36515000
   4.30610403  0.57701143  2.78984000
   7.57199997  0.96528143  2.86160000
   4.87936000  2.39383000  0.05793180
   4.68139000  2.48446000  5.67428000
  -0.22934100  2.40623000 11.20265421
  -0.26074200  2.44444000  5.59503000
  -2.66740000  6.74902000 11.20340000
  -2.76383000  6.79739000  5.66519000
   2.26994000  6.68265000  0.05517450
   2.29984000  6.71875000  5.58925000
   4.88660000  8.15580000  0.03816170
   2.31760000  0.99479500  0.00896161
   4.77803000  8.19226000  5.60449000
   2.25965000  1.05525000  5.59697000
  -0.21374800  8.15731000 11.15830000
   7.40281000  0.87166500 11.18570000
  -0.24807100  8.25217000  5.60360000
   7.28922000  0.97753700  5.66222000
   2.35278000  3.81117000  0.04654360
   4.86356000  5.30127000  0.03552520
   2.21232000  3.90266000  5.55084000
   4.81529000  5.34674000  5.60485000
   7.28740000  3.74922000 11.07636241
  -0.20233700  5.30770000 11.12749031
   7.25938000  3.89441000  5.61939000
  -0.25101200  5.32293000  5.68536000
   0.74193200  0.89630000  1.01414000
  -1.75775003  8.25539257  0.98101400
   3.02464000  2.46364000  1.13692000
  -3.78667003  8.37185857  6.69731000
   1.51597000  2.52956000  6.60832000
   3.82923000  0.89282500  6.66309000
  -3.56155003  8.19144457 10.21430000
   1.60485000  2.36011000 10.25710000
   4.03029000  0.80126700 10.08380000
   0.67591600  0.89067000  4.62269000
  -1.90570003  8.32815357  4.57627000
   2.98492000  2.48226000  4.46673000
   5.75011000  0.83580400  1.05590000
   3.26250997  8.21155957  0.99086400
   8.10024000  2.29960000  1.03748000
   1.41258997  8.28525357  6.72556000
   6.45923000  2.47322000  6.61381000
   8.78724000  0.89978700  6.75050000
   1.42547997  8.23132157 10.13890000
   6.59743000  2.32951000 10.17700000
   9.01326000  0.85115700 10.14980000
   5.63815000  0.85751600  4.65540000
   3.05471997  8.28169657  4.63427000
   7.95321000  2.47498000  4.56813000
   3.22106000  5.22282000  1.07129000
   5.72850000  3.89901000  1.05295000
   5.67743000  6.76543000  1.11601000
   3.80181000  3.98878000  6.72304000
   4.05623000  6.72711000  6.70613000
   6.39722000  5.22932000  6.74123000
   3.93088000  3.85861000 10.26750000
   4.10996000  6.72292000 10.19870000
   6.35732000  5.13320000 10.11860000
   3.25830000  5.24512000  4.54659000
   5.69264000  3.97657000  4.58049000
   5.51908000  6.81308000  4.56688000
  -1.75510000  5.14461000  0.82714400
   0.69794300  3.92874000  1.01632000
   0.52567200  6.77362000  0.96580900
  -1.16560000  3.90250000  6.69339000
  -1.01858000  6.78080000  6.74158000
   1.38247000  5.18426000  6.59516000
  -1.12271000  3.90922000 10.05560000
  -0.92297900  6.71561000 10.09810000
   1.47599000  5.17800000 10.17230000
  -1.87907000  5.32407000  4.58070000
   0.65599000  3.97463000  4.55795000
   0.45316300  6.77193000  4.75060000
 


--------------------------------------------------------------------------------------------------------


 k-point  1 :   0.0000 0.0000 0.0000  plane waves:   17725
 k-point  2 :   0.5000-0.0000-0.0000  plane waves:   17736
 k-point  3 :   0.0000 0.5000 0.0000  plane waves:   17736
 k-point  4 :   0.5000 0.5000-0.0000  plane waves:   17736
 k-point  5 :   0.0000 0.0000 0.5000  plane waves:   17676
 k-point  6 :   0.5000-0.0000 0.5000  plane waves:   17700
 k-point  7 :   0.0000 0.5000 0.5000  plane waves:   17700
 k-point  8 :   0.5000 0.5000 0.5000  plane waves:   17700

 maximum and minimum number of plane-waves per node :     17736    17676

 maximum number of plane-waves:     17736
 maximum index in each direction: 
   IXMAX=   16   IYMAX=   16   IZMAX=   18
   IXMIN=  -16   IYMIN=  -16   IZMIN=  -18


 serial   3D FFT for wavefunctions
 parallel 3D FFT for charge:
    minimum data exchange during FFTs selected (reduces bandwidth)


 total amount of memory used by VASP MPI-rank0   104119. kBytes
=======================================================================

   base      :      30000. kBytes
   nonlr-proj:      13677. kBytes
   fftplans  :       1316. kBytes
   grid      :      22786. kBytes
   one-center:       2737. kBytes
   wavefun   :      33603. kBytes
 
     INWAV:  cpu time    0.0000: real time    0.0001
 Broyden mixing: mesh for mixing (old mesh)
   NGX = 33   NGY = 33   NGZ = 37
  (NGX  =100   NGY  =100   NGZ  =112)
  gives a total of  40293 points

 initial charge density was supplied:
 charge density of overlapping atoms calculated
 number of electron     672.0000000 magnetization      48.0000000
 keeping initial charge density in first step


--------------------------------------------------------------------------------------------------------


 Maximum index for non-local projection operator         1551
 Maximum index for augmentation-charges          264 (set IRDMAX)


--------------------------------------------------------------------------------------------------------


 First call to EWALD:  gamma=   0.179
 Maximum number of real-space cells 3x 3x 2
 Maximum number of reciprocal cells 3x 3x 3

    FEWALD:  cpu time    0.0021: real time    0.0031


--------------------------------------- Iteration      1(   1)  ---------------------------------------


    POTLOK:  cpu time    0.0683: real time    0.0712
    SETDIJ:  cpu time    2.5607: real time    2.5631
    EDDIAG:  cpu time    3.2254: real time    3.2366
  RMM-DIIS:  cpu time    8.6511: real time    8.6697
    ORTHCH:  cpu time    0.5853: real time    0.5895
       DOS:  cpu time    0.0013: real time    0.0014
    --------------------------------------------
      LOOP:  cpu time   15.0921: real time   15.1314

 eigenvalue-minimisations  :  7168
 total energy-change (2. order) : 0.1778937E+04  (-0.3593510E+05)
 number of electron     672.0000000 magnetization      48.0000000
 augmentation part      672.0000000 magnetization      48.0000000

 Free energy of the ion-electron system (eV)
  ---------------------------------------------------
  alpha Z        PSCENC =      2652.81237852
  Ewald energy   TEWEN  =    -41834.31461905
  -Hartree energ DENC   =    -25776.83826375
  -exchange      EXHF   =         0.00000000
  -V(xc)+E(xc)   XCENC  =      3605.98544768
  PAW double counting   =     55594.23204139   -59034.67079123
  entropy T*S    EENTRO =        -0.04512998
  eigenvalues    EBANDS =     -7290.42259416
  atomic energy  EATOM  =     73862.19814772
  Solvation  Ediel_sol  =         0.00000000
  ---------------------------------------------------
  free energy    TOTEN  =      1778.93661714 eV

  energy without entropy =     1778.98174712  energy(sigma->0) =     1778.95918213


--------------------------------------------------------------------------------------------------------




--------------------------------------- Iteration      1(   2)  ---------------------------------------


    EDDIAG:  cpu time    3.2676: real time    3.2750
  RMM-DIIS:  cpu time    8.6166: real time    8.6964
    ORTHCH:  cpu time    0.5809: real time    0.5849
       DOS:  cpu time    0.0010: real time    0.0010
    --------------------------------------------
      LOOP:  cpu time   12.4661: real time   12.5573

 eigenvalue-minimisations  :  7168
 total energy-change (2. order) :-0.2614349E+04  (-0.8656353E+04)
 number of electron     672.0000000 magnetization      48.0000000
 augmentation part      672.0000000 magnetization      48.0000000

 Free energy of the ion-electron system (eV)
  ---------------------------------------------------
  alpha Z        PSCENC =      2652.81237852
  Ewald energy   TEWEN  =    -41834.31461905
  -Hartree energ DENC   =    -25776.83826375
  -exchange      EXHF   =         0.00000000
  -V(xc)+E(xc)   XCENC  =      3605.98544768
  PAW double counting   =     55594.23204139   -59034.67079123
  entropy T*S    EENTRO =        -0.03544160
  eigenvalues    EBANDS =     -9904.78175197
  atomic energy  EATOM  =     73862.19814772
  Solvation  Ediel_sol  =         0.00000000
  ---------------------------------------------------
  free energy    TOTEN  =      -835.41285229 eV

  energy without entropy =     -835.37741069  energy(sigma->0) =     -835.39513149


--------------------------------------------------------------------------------------------------------




--------------------------------------- Iteration      1(   3)  ---------------------------------------


    EDDIAG:  cpu time    3.2401: real time    3.2460
  RMM-DIIS:  cpu time    8.6498: real time    8.6678
    ORTHCH:  cpu time    0.5821: real time    0.5866
       DOS:  cpu time    0.0010: real time    0.0010
    --------------------------------------------
      LOOP:  cpu time   12.4731: real time   12.5014

 eigenvalue-minimisations  :  7168
 total energy-change (2. order) : 0.3016010E+03  (-0.1557734E+04)
 number of electron     672.0000000 magnetization      48.0000000
 augmentation part      672.0000000 magnetization      48.0000000

 Free energy of the ion-electron system (eV)
  ---------------------------------------------------
  alpha Z        PSCENC =      2652.81237852
  Ewald energy   TEWEN  =    -41834.31461905
  -Hartree energ DENC   =    -25776.83826375
  -exchange      EXHF   =         0.00000000
  -V(xc)+E(xc)   XCENC  =      3605.98544768
  PAW double counting   =     55594.23204139   -59034.67079123
  entropy T*S    EENTRO =        -0.03425647
  eigenvalues    EBANDS =     -9603.18190014
  atomic energy  EATOM  =     73862.19814772
  Solvation  Ediel_sol  =         0.00000000
  ---------------------------------------------------
  free energy    TOTEN  =      -533.81181533 eV

  energy without entropy =     -533.77755886  energy(sigma->0) =     -533.79468709


--------------------------------------------------------------------------------------------------------




--------------------------------------- Iteration      1(   4)  ---------------------------------------


    EDDIAG:  cpu time    3.2324: real time    3.2417
  RMM-DIIS:  cpu time    8.6544: real time    8.6698
    ORTHCH:  cpu time    0.5810: real time    0.5851
       DOS:  cpu time    0.0008: real time    0.0008
    --------------------------------------------
      LOOP:  cpu time   12.4685: real time   12.4974

 eigenvalue-minimisations  :  7168
 total energy-change (2. order) :-0.5241102E+03  (-0.5056291E+03)
 number of electron     672.0000000 magnetization      48.0000000
 augmentation part      672.0000000 magnetization      48.0000000

 Free energy of the ion-electron system (eV)
  ---------------------------------------------------
  alpha Z        PSCENC =      2652.81237852
  Ewald energy   TEWEN  =    -41834.31461905
  -Hartree energ DENC   =    -25776.83826375
  -exchange      EXHF   =         0.00000000
  -V(xc)+E(xc)   XCENC  =      3605.98544768
  PAW double counting   =     55594.23204139   -59034.67079123
  entropy T*S    EENTRO =        -0.00426687
  eigenvalues    EBANDS =    -10127.32212666
  atomic energy  EATOM  =     73862.19814772
  Solvation  Ediel_sol  =         0.00000000
  ---------------------------------------------------
  free energy    TOTEN  =     -1057.92205225 eV

  energy without entropy =    -1057.91778538  energy(sigma->0) =    -1057.91991882


--------------------------------------------------------------------------------------------------------




--------------------------------------- Iteration      1(   5)  ---------------------------------------


    EDDIAG:  cpu time    3.2362: real time    3.2429
  RMM-DIIS:  cpu time    8.6361: real time    8.6829
    ORTHCH:  cpu time    0.5808: real time    0.5847
       DOS:  cpu time    0.0006: real time    0.0006
    --------------------------------------------
      LOOP:  cpu time   12.4538: real time   12.5111

 eigenvalue-minimisations  :  7168
 total energy-change (2. order) :-0.1482175E+03  (-0.2124953E+03)
 number of electron     672.0000000 magnetization      48.0000000
 augmentation part      672.0000000 magnetization      48.0000000

 Free energy of the ion-electron system (eV)
  ---------------------------------------------------
  alpha Z        PSCENC =      2652.81237852
  Ewald energy   TEWEN  =    -41834.31461905
  -Hartree energ DENC   =    -25776.83826375
  -exchange      EXHF   =         0.00000000
  -V(xc)+E(xc)   XCENC  =      3605.98544768
  PAW double counting   =     55594.23204139   -59034.67079123
  entropy T*S    EENTRO =        -0.00000000
  eigenvalues    EBANDS =    -10275.54388722
  atomic energy  EATOM  =     73862.19814772
  Solvation  Ediel_sol  =         0.00000000
  ---------------------------------------------------
  free energy    TOTEN  =     -1206.13954594 eV

  energy without entropy =    -1206.13954594  energy(sigma->0) =    -1206.13954594


--------------------------------------------------------------------------------------------------------




--------------------------------------- Iteration      1(   6)  ---------------------------------------


    EDDIAG:  cpu time    3.2450: real time    3.2538
  RMM-DIIS:  cpu time    8.6580: real time    8.6712
    ORTHCH:  cpu time    0.5805: real time    0.5845
       DOS:  cpu time    0.0006: real time    0.0006
    --------------------------------------------
      LOOP:  cpu time   12.4842: real time   12.5102

 eigenvalue-minimisations  :  7168
 total energy-change (2. order) :-0.2170646E+02  (-0.1152152E+03)
 number of electron     672.0000000 magnetization      48.0000000
 augmentation part      672.0000000 magnetization      48.0000000

 Free energy of the ion-electron system (eV)
  ---------------------------------------------------
  alpha Z        PSCENC =      2652.81237852
  Ewald energy   TEWEN  =    -41834.31461905
  -Hartree energ DENC   =    -25776.83826375
  -exchange      EXHF   =         0.00000000
  -V(xc)+E(xc)   XCENC  =      3605.98544768
  PAW double counting   =     55594.23204139   -59034.67079123
  entropy T*S    EENTRO =        -0.00000000
  eigenvalues    EBANDS =    -10297.25034422
  atomic energy  EATOM  =     73862.19814772
  Solvation  Ediel_sol  =         0.00000000
  ---------------------------------------------------
  free energy    TOTEN  =     -1227.84600293 eV

  energy without entropy =    -1227.84600293  energy(sigma->0) =    -1227.84600293


--------------------------------------------------------------------------------------------------------




--------------------------------------- Iteration      1(   7)  ---------------------------------------


    EDDIAG:  cpu time    3.3120: real time    3.3209
  RMM-DIIS:  cpu time    8.6231: real time    8.6777
    ORTHCH:  cpu time    0.5818: real time    0.5856
       DOS:  cpu time    0.0006: real time    0.0006
    --------------------------------------------
      LOOP:  cpu time   12.5175: real time   12.5849

 eigenvalue-minimisations  :  7168
 total energy-change (2. order) :-0.6511647E+01  (-0.7602046E+02)
 number of electron     672.0000000 magnetization      48.0000000
 augmentation part      672.0000000 magnetization      48.0000000

 Free energy of the ion-electron system (eV)
  ---------------------------------------------------
  alpha Z        PSCENC =      2652.81237852
  Ewald energy   TEWEN  =    -41834.31461905
  -Hartree energ DENC   =    -25776.83826375
  -exchange      EXHF   =         0.00000000
  -V(xc)+E(xc)   XCENC  =      3605.98544768
  PAW double counting   =     55594.23204139   -59034.67079123
  entropy T*S    EENTRO =        -0.00000000
  eigenvalues    EBANDS =    -10303.76199077
  atomic energy  EATOM  =     73862.19814772
  Solvation  Ediel_sol  =         0.00000000
  ---------------------------------------------------
  free energy    TOTEN  =     -1234.35764948 eV

  energy without entropy =    -1234.35764948  energy(sigma->0) =    -1234.35764948


--------------------------------------------------------------------------------------------------------




--------------------------------------- Iteration      1(   8)  ---------------------------------------


    EDDIAG:  cpu time    3.2313: real time    3.2385
  RMM-DIIS:  cpu time    8.6476: real time    8.6651
    ORTHCH:  cpu time    0.5882: real time    0.5922
       DOS:  cpu time    0.0006: real time    0.0006
    --------------------------------------------
      LOOP:  cpu time   12.4678: real time   12.4964

 eigenvalue-minimisations  :  7168
 total energy-change (2. order) : 0.4679942E+01  (-0.5258501E+02)
 number of electron     672.0000000 magnetization      48.0000000
 augmentation part      672.0000000 magnetization      48.0000000

 Free energy of the ion-electron system (eV)
  ---------------------------------------------------
  alpha Z        PSCENC =      2652.81237852
  Ewald energy   TEWEN  =    -41834.31461905
  -Hartree energ DENC   =    -25776.83826375
  -exchange      EXHF   =         0.00000000
  -V(xc)+E(xc)   XCENC  =      3605.98544768
  PAW double counting   =     55594.23204139   -59034.67079123
  entropy T*S    EENTRO =        -0.00000000
  eigenvalues    EBANDS =    -10299.08204912
  atomic energy  EATOM  =     73862.19814772
  Solvation  Ediel_sol  =         0.00000000
  ---------------------------------------------------
  free energy    TOTEN  =     -1229.67770784 eV

  energy without entropy =    -1229.67770784  energy(sigma->0) =    -1229.67770784


--------------------------------------------------------------------------------------------------------




--------------------------------------- Iteration      1(   9)  ---------------------------------------


    EDDIAG:  cpu time    3.2432: real time    3.2528
  RMM-DIIS:  cpu time   18.0516: real time   18.1056
    ORTHCH:  cpu time    0.5797: real time    0.7024
       DOS:  cpu time    0.0006: real time    0.0006
    --------------------------------------------
      LOOP:  cpu time   21.8751: real time   22.0614

 eigenvalue-minimisations  : 20266
 total energy-change (2. order) : 0.1802464E+02  (-0.2355146E+02)
 number of electron     672.0000000 magnetization      48.0000000
 augmentation part      672.0000000 magnetization      48.0000000

 Free energy of the ion-electron system (eV)
  ---------------------------------------------------
  alpha Z        PSCENC =      2652.81237852
  Ewald energy   TEWEN  =    -41834.31461905
  -Hartree energ DENC   =    -25776.83826375
  -exchange      EXHF   =         0.00000000
  -V(xc)+E(xc)   XCENC  =      3605.98544768
  PAW double counting   =     55594.23204139   -59034.67079123
  entropy T*S    EENTRO =        -0.00000000
  eigenvalues    EBANDS =    -10281.05741327
  atomic energy  EATOM  =     73862.19814772
  Solvation  Ediel_sol  =         0.00000000
  ---------------------------------------------------
  free energy    TOTEN  =     -1211.65307199 eV

  energy without entropy =    -1211.65307199  energy(sigma->0) =    -1211.65307199


--------------------------------------------------------------------------------------------------------




--------------------------------------- Iteration      1(  10)  ---------------------------------------


    EDDIAG:  cpu time    3.2360: real time    3.2441
  RMM-DIIS:  cpu time   18.5418: real time   18.5798
    ORTHCH:  cpu time    0.5827: real time    0.5872
       DOS:  cpu time    0.0007: real time    0.0007
    --------------------------------------------
      LOOP:  cpu time   22.3612: real time   22.4118

 eigenvalue-minimisations  : 20154
 total energy-change (2. order) :-0.3078314E+01  (-0.1031063E+01)
 number of electron     672.0000000 magnetization      48.0000000
 augmentation part      672.0000000 magnetization      48.0000000

 Free energy of the ion-electron system (eV)
  ---------------------------------------------------
  alpha Z        PSCENC =      2652.81237852
  Ewald energy   TEWEN  =    -41834.31461905
  -Hartree energ DENC   =    -25776.83826375
  -exchange      EXHF   =         0.00000000
  -V(xc)+E(xc)   XCENC  =      3605.98544768
  PAW double counting   =     55594.23204139   -59034.67079123
  entropy T*S    EENTRO =        -0.00000000
  eigenvalues    EBANDS =    -10284.13572769
  atomic energy  EATOM  =     73862.19814772
  Solvation  Ediel_sol  =         0.00000000
  ---------------------------------------------------
  free energy    TOTEN  =     -1214.73138641 eV

  energy without entropy =    -1214.73138640  energy(sigma->0) =    -1214.73138640


--------------------------------------------------------------------------------------------------------




--------------------------------------- Iteration      1(  11)  ---------------------------------------


    EDDIAG:  cpu time    3.2355: real time    3.2444
  RMM-DIIS:  cpu time   19.3309: real time   19.3590
    ORTHCH:  cpu time    0.5829: real time    0.5866
       DOS:  cpu time    0.0007: real time    0.0007
    --------------------------------------------
      LOOP:  cpu time   23.1500: real time   23.1908

 eigenvalue-minimisations  : 21686
 total energy-change (2. order) : 0.1062764E+00  (-0.9634507E-01)
 number of electron     672.0000000 magnetization      48.0000000
 augmentation part      672.0000000 magnetization      48.0000000

 Free energy of the ion-electron system (eV)
  ---------------------------------------------------
  alpha Z        PSCENC =      2652.81237852
  Ewald energy   TEWEN  =    -41834.31461905
  -Hartree energ DENC   =    -25776.83826375
  -exchange      EXHF   =         0.00000000
  -V(xc)+E(xc)   XCENC  =      3605.98544768
  PAW double counting   =     55594.23204139   -59034.67079123
  entropy T*S    EENTRO =        -0.00000000
  eigenvalues    EBANDS =    -10284.02945124
  atomic energy  EATOM  =     73862.19814772
  Solvation  Ediel_sol  =         0.00000000
  ---------------------------------------------------
  free energy    TOTEN  =     -1214.62510996 eV

  energy without entropy =    -1214.62510996  energy(sigma->0) =    -1214.62510996


--------------------------------------------------------------------------------------------------------




--------------------------------------- Iteration      1(  12)  ---------------------------------------


    EDDIAG:  cpu time    3.2301: real time    3.2394
  RMM-DIIS:  cpu time   19.9854: real time   20.0639
    ORTHCH:  cpu time    0.5822: real time    0.5868
       DOS:  cpu time    0.0007: real time    0.0007
    CHARGE:  cpu time    1.7940: real time    1.7966
    MIXING:  cpu time    0.0012: real time    0.0015
    --------------------------------------------
      LOOP:  cpu time   25.5935: real time   25.6889

 eigenvalue-minimisations  : 22742
 total energy-change (2. order) : 0.6494998E-02  (-0.7042846E-02)
 number of electron     671.9999777 magnetization      48.0000017
 augmentation part      239.0589135 magnetization      29.0479306

 Broyden mixing:
  rms(total) = 0.12527E+02    rms(broyden)= 0.12518E+02
  rms(prec ) = 0.14384E+02
  weight for this iteration     100.00

 Free energy of the ion-electron system (eV)
  ---------------------------------------------------
  alpha Z        PSCENC =      2652.81237852
  Ewald energy   TEWEN  =    -41834.31461905
  -Hartree energ DENC   =    -25776.83826375
  -exchange      EXHF   =         0.00000000
  -V(xc)+E(xc)   XCENC  =      3605.98544768
  PAW double counting   =     55594.23204139   -59034.67079123
  entropy T*S    EENTRO =        -0.00000000
  eigenvalues    EBANDS =    -10284.02295624
  atomic energy  EATOM  =     73862.19814772
  Solvation  Ediel_sol  =         0.00000000
  ---------------------------------------------------
  free energy    TOTEN  =     -1214.61861496 eV

  energy without entropy =    -1214.61861496  energy(sigma->0) =    -1214.61861496


--------------------------------------------------------------------------------------------------------




--------------------------------------- Iteration      1(  13)  ---------------------------------------


    POTLOK:  cpu time    0.0614: real time    0.0629
    SETDIJ:  cpu time    2.7167: real time    2.7182
    EDDIAG:  cpu time    3.2410: real time    3.2498
  RMM-DIIS:  cpu time   16.1982: real time   16.2557
    ORTHCH:  cpu time    0.5838: real time    0.5880
       DOS:  cpu time    0.0009: real time    0.0009
    CHARGE:  cpu time    1.8044: real time    1.8066
    MIXING:  cpu time    0.0009: real time    0.0011
    --------------------------------------------
      LOOP:  cpu time   24.6074: real time   24.6832

 eigenvalue-minimisations  : 17312
 total energy-change (2. order) : 0.2244108E+03  (-0.1380225E+03)
 number of electron     671.9999896 magnetization      48.0000018
 augmentation part      269.1202791 magnetization      26.4567759

 Broyden mixing:
  rms(total) = 0.13965E+02    rms(broyden)= 0.13962E+02
  rms(prec ) = 0.15714E+02
  weight for this iteration     100.00

 eigenvalues of (default mixing * dielectric matrix)
  average eigenvalue GAMMA=   0.3172
  0.3172

 Free energy of the ion-electron system (eV)
  ---------------------------------------------------
  alpha Z        PSCENC =      2652.81237852
  Ewald energy   TEWEN  =    -41834.31461905
  -Hartree energ DENC   =    -25103.97875962
  -exchange      EXHF   =         0.00000000
  -V(xc)+E(xc)   XCENC  =      3696.08472144
  PAW double counting   =     59873.33565450   -63298.36857587
  entropy T*S    EENTRO =        -0.07827400
  eigenvalues    EBANDS =    -10837.89846328
  atomic energy  EATOM  =     73862.19814772
  Solvation  Ediel_sol  =         0.00000000
  ---------------------------------------------------
  free energy    TOTEN  =      -990.20778962 eV

  energy without entropy =     -990.12951562  energy(sigma->0) =     -990.16865262


--------------------------------------------------------------------------------------------------------




--------------------------------------- Iteration      1(  14)  ---------------------------------------


    POTLOK:  cpu time    0.0606: real time    0.0607
    SETDIJ:  cpu time    2.7182: real time    2.7203
    EDDIAG:  cpu time    3.2407: real time    3.2478
  RMM-DIIS:  cpu time   16.8652: real time   16.9116
    ORTHCH:  cpu time    0.5839: real time    0.5876
       DOS:  cpu time    0.0006: real time    0.0006
    CHARGE:  cpu time    1.7955: real time    1.7978
    MIXING:  cpu time    0.0008: real time    0.0008
    --------------------------------------------
      LOOP:  cpu time   25.2654: real time   25.3271

 eigenvalue-minimisations  : 17789
 total energy-change (2. order) : 0.7448379E+02  (-0.1904595E+02)
 number of electron     671.9999823 magnetization      48.0000028
 augmentation part      246.6121893 magnetization      32.1965747

 Broyden mixing:
  rms(total) = 0.52308E+01    rms(broyden)= 0.52266E+01
  rms(prec ) = 0.56502E+01
  weight for this iteration     100.00

 eigenvalues of (default mixing * dielectric matrix)
  average eigenvalue GAMMA=   0.7290
  1.0995  0.3585

 Free energy of the ion-electron system (eV)
  ---------------------------------------------------
  alpha Z        PSCENC =      2652.81237852
  Ewald energy   TEWEN  =    -41834.31461905
  -Hartree energ DENC   =    -25716.70290595
  -exchange      EXHF   =         0.00000000
  -V(xc)+E(xc)   XCENC  =      3673.77709862
  PAW double counting   =     63284.45177364   -66766.46876860
  entropy T*S    EENTRO =        -0.00000000
  eigenvalues    EBANDS =    -10071.47710193
  atomic energy  EATOM  =     73862.19814772
  Solvation  Ediel_sol  =         0.00000000
  ---------------------------------------------------
  free energy    TOTEN  =      -915.72399703 eV

  energy without entropy =     -915.72399703  energy(sigma->0) =     -915.72399703


--------------------------------------------------------------------------------------------------------




--------------------------------------- Iteration      1(  15)  ---------------------------------------


    POTLOK:  cpu time    0.0614: real time    0.0633
    SETDIJ:  cpu time    2.7195: real time    2.7220
    EDDIAG:  cpu time    3.2497: real time    3.2560
  RMM-DIIS:  cpu time   16.8435: real time   16.8889
    ORTHCH:  cpu time    0.5837: real time    0.5877
       DOS:  cpu time    0.0007: real time    0.0007
    CHARGE:  cpu time    1.7983: real time    1.8004
    MIXING:  cpu time    0.0008: real time    0.0008
    --------------------------------------------
      LOOP:  cpu time   25.2576: real time   25.3197

 eigenvalue-minimisations  : 18440
 total energy-change (2. order) : 0.1375535E+02  (-0.2072340E+01)
 number of electron     671.9999835 magnetization      48.0000038
 augmentation part      249.7086332 magnetization      33.8244024

 Broyden mixing:
  rms(total) = 0.21196E+01    rms(broyden)= 0.21193E+01
  rms(prec ) = 0.21993E+01
  weight for this iteration     100.00

 eigenvalues of (default mixing * dielectric matrix)
  average eigenvalue GAMMA=   0.9538
  0.3831  0.7599  1.7183

 Free energy of the ion-electron system (eV)
  ---------------------------------------------------
  alpha Z        PSCENC =      2652.81237852
  Ewald energy   TEWEN  =    -41834.31461905
  -Hartree energ DENC   =    -25634.76448501
  -exchange      EXHF   =         0.00000000
  -V(xc)+E(xc)   XCENC  =      3706.48495166
  PAW double counting   =     67372.87730311   -70895.31224061
  entropy T*S    EENTRO =        -0.00000000
  eigenvalues    EBANDS =    -10131.95008806
  atomic energy  EATOM  =     73862.19814772
  Solvation  Ediel_sol  =         0.00000000
  ---------------------------------------------------
  free energy    TOTEN  =      -901.96865171 eV

  energy without entropy =     -901.96865171  energy(sigma->0) =     -901.96865171


--------------------------------------------------------------------------------------------------------




--------------------------------------- Iteration      1(  16)  ---------------------------------------


    POTLOK:  cpu time    0.0611: real time    0.0613
    SETDIJ:  cpu time    2.7425: real time    2.7447
    EDDIAG:  cpu time    3.2333: real time    3.2409
  RMM-DIIS:  cpu time   16.2142: real time   16.2401
    ORTHCH:  cpu time    0.5845: real time    0.5882
       DOS:  cpu time    0.0006: real time    0.0006
    CHARGE:  cpu time    1.7951: real time    1.7978
    MIXING:  cpu time    0.0008: real time    0.0008
    --------------------------------------------
      LOOP:  cpu time   24.6322: real time   24.6744

 eigenvalue-minimisations  : 17340
 total energy-change (2. order) :-0.1571129E+01  (-0.7017112E+00)
 number of electron     671.9999841 magnetization      48.0000041
 augmentation part      251.2073942 magnetization      33.9141033

 Broyden mixing:
  rms(total) = 0.13982E+01    rms(broyden)= 0.13977E+01
  rms(prec ) = 0.14920E+01
  weight for this iteration     100.00

 eigenvalues of (default mixing * dielectric matrix)
  average eigenvalue GAMMA=   0.9730
  2.0644  0.9062  0.3898  0.5316

 Free energy of the ion-electron system (eV)
  ---------------------------------------------------
  alpha Z        PSCENC =      2652.81237852
  Ewald energy   TEWEN  =    -41834.31461905
  -Hartree energ DENC   =    -25584.54190329
  -exchange      EXHF   =         0.00000000
  -V(xc)+E(xc)   XCENC  =      3707.60132966
  PAW double counting   =     70307.10719507   -73859.35412482
  entropy T*S    EENTRO =        -0.00000000
  eigenvalues    EBANDS =    -10155.04818497
  atomic energy  EATOM  =     73862.19814772
  Solvation  Ediel_sol  =         0.00000000
  ---------------------------------------------------
  free energy    TOTEN  =      -903.53978114 eV

  energy without entropy =     -903.53978114  energy(sigma->0) =     -903.53978114


--------------------------------------------------------------------------------------------------------




--------------------------------------- Iteration      1(  17)  ---------------------------------------


    POTLOK:  cpu time    0.0610: real time    0.0632
    SETDIJ:  cpu time    2.7365: real time    2.7486
    EDDIAG:  cpu time    3.2335: real time    3.2407
  RMM-DIIS:  cpu time   16.8734: real time   16.9026
    ORTHCH:  cpu time    0.5830: real time    0.5872
       DOS:  cpu time    0.0006: real time    0.0006
    CHARGE:  cpu time    1.7933: real time    1.7972
    MIXING:  cpu time    0.0018: real time    0.0018
    --------------------------------------------
      LOOP:  cpu time   25.2830: real time   25.3419

 eigenvalue-minimisations  : 18541
 total energy-change (2. order) : 0.1931435E+00  (-0.6434874E-01)
 number of electron     671.9999841 magnetization      48.0000045
 augmentation part      251.0839581 magnetization      33.9089968

 Broyden mixing:
  rms(total) = 0.75290E+00    rms(broyden)= 0.75281E+00
  rms(prec ) = 0.84740E+00
  weight for this iteration     100.00

 eigenvalues of (default mixing * dielectric matrix)
  average eigenvalue GAMMA=   1.0019
  2.2294  1.1330  0.3808  0.7010  0.5653

 Free energy of the ion-electron system (eV)
  ---------------------------------------------------
  alpha Z        PSCENC =      2652.81237852
  Ewald energy   TEWEN  =    -41834.31461905
  -Hartree energ DENC   =    -25577.74383272
  -exchange      EXHF   =         0.00000000
  -V(xc)+E(xc)   XCENC  =      3704.68473508
  PAW double counting   =     71125.15599632   -74685.40191523
  entropy T*S    EENTRO =        -0.00000000
  eigenvalues    EBANDS =    -10150.73752828
  atomic energy  EATOM  =     73862.19814772
  Solvation  Ediel_sol  =         0.00000000
  ---------------------------------------------------
  free energy    TOTEN  =      -903.34663763 eV

  energy without entropy =     -903.34663763  energy(sigma->0) =     -903.34663763


--------------------------------------------------------------------------------------------------------




--------------------------------------- Iteration      1(  18)  ---------------------------------------


    POTLOK:  cpu time    0.0615: real time    0.0628
    SETDIJ:  cpu time    2.7386: real time    2.7410
    EDDIAG:  cpu time    3.2554: real time    3.2748
  RMM-DIIS:  cpu time   16.4658: real time   16.4921
    ORTHCH:  cpu time    0.5840: real time    0.5881
       DOS:  cpu time    0.0006: real time    0.0006
    CHARGE:  cpu time    1.7975: real time    1.7999
    MIXING:  cpu time    0.0009: real time    0.0009
    --------------------------------------------
      LOOP:  cpu time   24.9044: real time   24.9603

 eigenvalue-minimisations  : 17532
 total energy-change (2. order) : 0.3837237E+00  (-0.7164062E-01)
 number of electron     671.9999838 magnetization      48.0000046
 augmentation part      250.5951544 magnetization      33.8729839

 Broyden mixing:
  rms(total) = 0.27648E+00    rms(broyden)= 0.27621E+00
  rms(prec ) = 0.29129E+00
  weight for this iteration     100.00

 eigenvalues of (default mixing * dielectric matrix)
  average eigenvalue GAMMA=   1.0198
  2.4666  1.3552  0.8536  0.3823  0.5876  0.4736

[...]
   4      -0.606    -1.017     1.623    -0.193    -0.020     0.002
   5      -0.854    -0.991     1.845     0.027    -0.022     0.007
   6      -0.630    -0.896     1.526     0.162     0.073     0.012
   7      -0.823    -1.082     1.905     0.028     0.009    -0.101
   8      -0.943    -0.524     1.467    -0.002    -0.013    -0.004
   9      -0.915    -0.520     1.436     0.006     0.045    -0.078
  10      -1.018    -0.590     1.608     0.031    -0.056     0.054
  11      -0.582    -0.761     1.343     0.161    -0.031     0.014
  12      -0.847    -0.520     1.367    -0.031    -0.064     0.088
  13      -1.089    -0.757     1.846    -0.004     0.110    -0.010
  14      -0.559    -0.735     1.294     0.159     0.015     0.044
  15      -0.621    -1.054     1.675    -0.191     0.106     0.050
  16      -0.931    -0.955     1.886    -0.187    -0.093     0.014
  17       1.461     1.402    -2.863    -0.055    -0.130     0.099
  18       1.464     1.439    -2.903     0.118     0.045    -0.050
  19       1.684     1.302    -2.985    -0.038     0.097    -0.083
  20       1.560     1.365    -2.925    -0.031    -0.134     0.068
  21       1.525     1.496    -3.021    -0.180    -0.073     0.078
  22       1.471     1.376    -2.847    -0.062     0.032    -0.098
  23       1.599     1.403    -3.003     0.050     0.115     0.010
  24       1.544     1.484    -3.028     0.099    -0.046    -0.009
  25      -1.417     0.321     1.096    -0.031     0.471     0.399
  26       0.910    -1.760     0.850     1.228     0.476     0.956
  27       0.024     0.708    -0.732    -1.268    -1.029    -1.869
  28      -0.740     0.903    -0.163     0.187    -0.719     0.022
  29       0.081     0.509    -0.590     0.465    -0.673     0.591
  30      -1.019     0.265     0.754    -0.046    -0.554    -0.229
  31       0.043    -2.483     2.441    -0.026     0.890     0.388
  32       0.361    -0.826     0.464     0.783    -0.846     0.837
  33      -0.791     0.081     0.710     0.020    -0.106     0.842
  34      -0.184    -0.203     0.387     0.567     0.729     0.054
  35       0.154     0.758    -0.912    -0.019     0.279    -0.621
  36       0.265     1.013    -1.278    -0.172    -0.123    -0.865
  37      -0.281    -1.434     1.714    -1.348     0.713    -0.208
  38      -2.369     0.635     1.734    -0.825     0.191     1.101
  39       0.074    -0.276     0.202    -0.429    -0.498    -0.512
  40      -0.919    -1.277     2.196     0.267    -0.570     0.136
  41      -3.881     1.840     2.041    -4.920     4.288    -3.000
  42      -2.650     2.102     0.547     5.280     2.896     3.179
  43       5.348    -5.031    -0.316    -0.290    -4.863     0.160
  44      -1.146     3.527    -2.381    -6.263    -3.967     2.525
  45       6.377    -6.597     0.221     1.281     4.368     1.171
  46      -2.210     3.977    -1.766     5.347    -1.890    -1.827
  47      -1.325    -0.100     1.426    -4.171     3.166    -3.882
  48       5.687    -6.819     1.133     0.035    -4.959     1.769
  49      -0.869     1.458    -0.589     5.889     2.152     4.279
  50      -3.111     1.409     1.702    -6.081    -2.647     3.710
  51      -3.289     1.682     1.607     4.300    -1.793    -4.901
  52       4.889    -5.518     0.629    -0.214     4.638     1.776
  53      -3.044     2.808     0.236    -3.427     1.825    -4.351
  54      -4.121     2.474     1.647     4.053     1.650     4.598
  55       5.383    -4.194    -1.189     0.004    -3.796    -0.461
  56      -3.604     3.164     0.441    -4.914    -3.563     5.127
  57       2.642    -5.501     2.858     0.508     5.067     1.227
  58      -3.571     4.445    -0.873     4.846    -4.259    -3.335
  59      -4.894     3.384     1.510    -5.157     1.458    -3.822
  60       5.130    -7.688     2.558    -0.338    -5.104    -1.399
  61      -3.976     2.652     1.323     3.521     3.039     4.739
  62      -2.823    -0.077     2.899    -5.973    -0.910     5.447
  63      -2.668     1.446     1.221     4.065    -0.631    -4.763
  64       5.017    -5.065     0.048     1.222     3.539    -0.330
  65      -3.384     1.697     1.687    -4.377     2.439    -3.371
  66       0.005     0.608    -0.613     5.265     2.311     2.896
  67       4.046    -4.969     0.923     0.711    -4.793     0.320
  68      -1.983     3.189    -1.206    -4.422    -1.056     3.571
  69       5.415    -4.706    -0.709     0.044     4.652    -0.102
  70      -2.250     2.671    -0.420     5.520    -2.677    -3.890
  71      -2.068     0.951     1.117    -4.758     3.158    -3.915
  72       4.724    -5.359     0.636     0.467    -4.581     0.373
  73      -1.095     0.386     0.709     7.339     4.380     3.721
  74      -4.786     4.051     0.735    -4.296    -3.260     1.732
  75      -3.005     1.557     1.448     5.321    -2.927    -4.355
  76       5.988    -6.752     0.764     0.520     4.464    -1.119
  77      -3.766     3.679     0.087    -5.275     3.343    -2.665
  78      -3.887     2.915     0.971     4.610     2.548     4.655
  79       4.058    -6.102     2.043    -0.280    -5.208    -1.124
  80      -3.826     2.682     1.144    -4.224    -2.600     3.597
  81       4.221    -4.663     0.442     2.081     5.083    -1.184
  82      -4.378     2.170     2.208     5.032    -2.224    -5.166
  83      -4.411     2.995     1.416    -5.160     3.629    -4.709
  84       4.712    -5.681     0.968     0.525    -4.146     0.902
  85      -2.659     1.777     0.882     5.336     2.007     3.704
  86      -1.358     1.411    -0.053    -4.360    -3.142     3.675
  87      -3.923     2.998     0.925     4.251    -2.857    -4.482
  88       5.100    -8.011     2.911    -0.143     5.360     1.731
 ---------------------------------------------------------------------


 Total hyperfine coupling parameters after diagonalization (MHz)
 (convention: |A_zz| > |A_xx| > |A_yy|)
 ----------------------------------------------------------------------
  ion      A_xx      A_yy      A_zz     asymmetry (A_yy - A_xx)/ A_zz 
 ----------------------------------------------------------------------
   1       0.548     0.294     3.190      -0.080
   2       1.915     1.611     3.863      -0.079
   3      -0.147     0.120     2.886       0.093
   4       1.012     0.449     3.165      -0.178
   5      -0.185    -0.037     2.657       0.056
   6       2.158     1.741     4.242      -0.098
   7      -0.315    -0.047     2.681       0.100
   8       1.998     1.579     3.990      -0.105
   9       2.115     1.722     4.078      -0.096
  10       2.729     2.297     4.929      -0.088
  11       2.224     1.855     4.055      -0.091
  12       1.451     1.122     3.346      -0.098
  13       0.535     0.198     3.141      -0.107
  14       1.953     1.590     3.714      -0.098
  15       2.091     1.514     4.323      -0.134
  16       0.202    -0.172     2.849      -0.131
  17      13.572     9.332    13.702      -0.309
  18      13.118     8.879    13.354      -0.317
  19      14.375    10.087    14.766      -0.290
  20      14.424    10.133    14.633      -0.293
  21      15.142    10.789    15.505      -0.281
  22      12.862     8.665    13.017      -0.322
  23      14.478    10.081    14.701      -0.299
  24      15.602    11.163    15.809      -0.281
  25      98.225    96.540    99.379      -0.017
  26     101.963    99.149   103.553      -0.027
  27      98.421    94.805    99.811      -0.036
  28      99.307    97.757    99.924      -0.016
  29      93.136    91.343    93.490      -0.019
  30      97.006    95.608    97.768      -0.014
  31      96.885    94.610    99.887      -0.023
  32      95.861    93.542    96.599      -0.024
  33      95.031    94.703    96.813      -0.003
  34      98.710    97.794    99.761      -0.009
  35      94.703    93.345    95.491      -0.014
  36      95.704    93.853    96.755      -0.019
  37      98.578    95.977   100.382      -0.026
  38      96.839    94.006    99.070      -0.029
  39      93.643    92.334    93.978      -0.014
  40      98.747    98.117   101.880      -0.006
  41       6.731     0.395    16.156      -0.392
  42       6.806     2.443    16.559      -0.263
  43       5.059     3.131    16.323      -0.118
  44       4.551     0.801    16.910      -0.222
  45       6.735     1.916    17.562      -0.274
  46       7.702     4.519    17.715      -0.180
  47       3.040     0.750    13.263      -0.173
  48       9.275     3.586    19.812      -0.287
  49       5.419     2.068    16.754      -0.200
  50       6.542     0.498    16.470      -0.367
  51       5.137     1.476    15.613      -0.235
  52       5.620     1.071    15.209      -0.299
  53      -1.547     0.260    10.554       0.171
  54       5.368     1.269    15.442      -0.266
  55       4.026     2.503    13.945      -0.109
  56       1.527    -1.329    14.866      -0.192
  57       3.252    -0.188    13.430      -0.256
  58       6.873     1.737    18.030      -0.285
  59       6.361    -0.097    15.591      -0.414
  60       8.810     1.997    19.097      -0.357
  61       4.624     1.712    15.927      -0.183
  62       7.806     0.009    17.231      -0.452
  63       7.082     2.558    15.753      -0.287
  64       4.538     0.782    13.053      -0.288
  65       5.502     0.915    14.136      -0.324
  66       5.117     2.426    14.727      -0.183
  67       5.106     2.330    15.024      -0.185
  68      -1.406     0.973    10.709       0.222
  69       4.423     2.917    15.554      -0.097
  70       5.665     2.687    17.222      -0.173
  71       2.923    -0.137    13.494      -0.227
  72       5.216     1.985    15.148      -0.213
  73       6.013     0.758    18.966      -0.277
  74       7.843     0.402    14.823      -0.502
  75       5.677     1.457    16.777      -0.252
  76       6.866     1.333    16.923      -0.327
  77       6.359     0.654    15.976      -0.357
  78       3.296    -0.320    14.727      -0.246
  79       4.759     0.365    15.122      -0.291
  80       7.672     3.355    17.062      -0.253
  81       3.417    -1.195    12.874      -0.358
  82       6.373     1.403    17.868      -0.278
  83       3.835    -0.901    16.121      -0.294
  84       5.490     1.004    14.332      -0.313
  85       5.308     0.678    14.786      -0.313
  86       3.852     2.255    14.500      -0.110
  87       4.828     1.386    16.066      -0.214
  88       7.191    -0.001    17.893      -0.402
 ---------------------------------------------------------------------



--------------------------------------------------------------------------------------------------------


 stress matrix after NEB project (eV)
    -44.55734     -0.38914      0.31434
     -0.39185    -48.29769     -2.54180
      0.29073     -2.52096    -62.47565
  FORCES: max atom, RMS     2.082747    1.044423
  FORCE total and by dimension    9.797552    1.729802
  Stress total and by dimension   90.744334   62.475647
     LOOP+:  cpu time  662.6503: real time  664.5317
    4ORBIT:  cpu time    0.0000: real time    0.0000
 


 total charge     
 
# of ion       s       p       d       tot
------------------------------------------
    1        0.045   5.988   0.000   6.032
    2        0.052   5.995   0.000   6.047
    3        0.054   5.999   0.000   6.053
    4        0.055   5.999   0.000   6.054
    5        0.048   5.991   0.000   6.039
    6        0.051   5.994   0.000   6.045
    7        0.055   6.001   0.000   6.056
    8        0.050   5.994   0.000   6.044
    9        0.047   5.988   0.000   6.035
   10        0.048   5.991   0.000   6.039
   11        0.048   5.990   0.000   6.038
   12        0.048   5.990   0.000   6.038
   13        0.052   5.995   0.000   6.047
   14        0.049   5.992   0.000   6.041
   15        0.052   5.994   0.000   6.045
   16        0.051   5.994   0.000   6.046
   17        0.148   6.127   0.083   6.358
   18        0.147   6.124   0.081   6.352
   19        0.149   6.129   0.085   6.364
   20        0.145   6.123   0.080   6.348
   21        0.151   6.133   0.088   6.373
   22        0.147   6.125   0.082   6.354
   23        0.150   6.131   0.087   6.368
   24        0.149   6.129   0.085   6.363
   25        0.376   6.459   4.828  11.663
   26        0.368   6.436   4.827  11.631
   27        0.375   6.448   4.837  11.660
   28        0.369   6.443   4.821  11.634
   29        0.385   6.480   4.847  11.712
   30        0.371   6.445   4.815  11.631
   31        0.378   6.456   4.838  11.672
   32        0.378   6.458   4.833  11.669
   33        0.384   6.474   4.846  11.704
   34        0.365   6.435   4.807  11.607
   35        0.388   6.479   4.862  11.729
   36        0.370   6.445   4.824  11.639
   37        0.374   6.447   4.834  11.655
   38        0.379   6.460   4.841  11.680
   39        0.378   6.463   4.830  11.670
   40        0.372   6.446   4.825  11.643
   41        1.601   3.501   0.000   5.102
   42        1.598   3.531   0.000   5.129
   43        1.598   3.499   0.000   5.097
   44        1.600   3.505   0.000   5.106
   45        1.605   3.495   0.000   5.100
   46        1.597   3.526   0.000   5.124
   47        1.599   3.521   0.000   5.120
   48        1.605   3.515   0.000   5.119
   49        1.598   3.499   0.000   5.096
   50        1.599   3.511   0.000   5.110
   51        1.597   3.510   0.000   5.108
   52        1.597   3.487   0.000   5.084
   53        1.596   3.485   0.000   5.081
   54        1.598   3.525   0.000   5.124
   55        1.598   3.497   0.000   5.095
   56        1.602   3.450   0.000   5.052
   57        1.598   3.507   0.000   5.105
   58        1.601   3.489   0.000   5.090
   59        1.599   3.478   0.000   5.078
   60        1.602   3.521   0.000   5.123
   61        1.599   3.496   0.000   5.095
   62        1.600   3.517   0.000   5.117
   63        1.597   3.530   0.000   5.127
   64        1.596   3.511   0.000   5.108
   65        1.597   3.503   0.000   5.100
   66        1.596   3.516   0.000   5.112
   67        1.598   3.489   0.000   5.087
   68        1.598   3.497   0.000   5.095
   69        1.601   3.493   0.000   5.094
   70        1.598   3.493   0.000   5.091
   71        1.600   3.512   0.000   5.112
   72        1.600   3.481   0.000   5.081
   73        1.600   3.488   0.000   5.088
   74        1.597   3.512   0.000   5.109
   75        1.599   3.512   0.000   5.111
   76        1.601   3.507   0.000   5.108
   77        1.600   3.529   0.000   5.130
   78        1.596   3.497   0.000   5.093
   79        1.603   3.509   0.000   5.111
   80        1.598   3.504   0.000   5.102
   81        1.595   3.492   0.000   5.087
   82        1.602   3.530   0.000   5.133
   83        1.598   3.484   0.000   5.083
   84        1.598   3.521   0.000   5.119
   85        1.595   3.517   0.000   5.112
   86        1.597   3.486   0.000   5.084
   87        1.599   3.513   0.000   5.112
   88        1.603   3.529   0.000   5.132
--------------------------------------------------
tot         84.755 416.411  77.985 579.151
 


 magnetization (x)
 
# of ion       s       p       d       tot
------------------------------------------
    1        0.001   0.001   0.000   0.002
    2        0.002   0.000   0.000   0.002
    3        0.001   0.000   0.000   0.001
    4        0.001   0.000   0.000   0.001
    5        0.001   0.000   0.000   0.001
    6        0.002   0.000   0.000   0.002
    7        0.001   0.000   0.000   0.001
    8        0.002   0.000   0.000   0.002
    9        0.002   0.000   0.000   0.002
   10        0.002   0.000   0.000   0.003
   11        0.002   0.000   0.000   0.002
   12        0.001  -0.000   0.000   0.001
   13        0.001   0.000   0.000   0.001
   14        0.002   0.000   0.000   0.002
   15        0.002   0.000   0.000   0.002
   16        0.001   0.000   0.000   0.001
   17        0.007   0.002   0.001   0.010
   18        0.007   0.002   0.001   0.010
   19        0.007   0.003   0.001   0.011
   20        0.007   0.002   0.001   0.010
   21        0.008   0.003   0.001   0.011
   22        0.006   0.002   0.001   0.009
   23        0.007   0.003   0.001   0.011
   24        0.008   0.003   0.001   0.012
   25        0.016   0.030   2.758   2.804
   26        0.017   0.029   2.774   2.820
   27        0.015   0.030   2.751   2.796
   28        0.016   0.031   2.766   2.813
   29        0.014   0.030   2.735   2.780
   30        0.015   0.030   2.763   2.809
   31        0.016   0.030   2.746   2.791
   32        0.015   0.030   2.746   2.791
   33        0.015   0.030   2.739   2.785
   34        0.016   0.030   2.779   2.824
   35        0.015   0.030   2.724   2.769
   36        0.015   0.030   2.760   2.805
   37        0.016   0.030   2.748   2.794
   38        0.015   0.030   2.748   2.793
   39        0.015   0.029   2.753   2.797
   40        0.016   0.030   2.768   2.814
   41        0.002   0.033   0.000   0.035
   42        0.002   0.047   0.000   0.049
   43        0.002   0.036   0.000   0.038
   44        0.002   0.028   0.000   0.030
   45        0.002   0.036   0.000   0.039
   46        0.002   0.047   0.000   0.050
   47        0.002   0.020   0.000   0.021
   48        0.003   0.059   0.000   0.061
   49        0.002   0.039   0.000   0.041
   50        0.002   0.043   0.000   0.045
   51        0.002   0.031   0.000   0.033
   52        0.002   0.028   0.000   0.030
   53        0.001   0.000   0.000   0.002
   54        0.002   0.045   0.000   0.046
   55        0.002   0.018   0.000   0.020
   56        0.002  -0.001   0.000   0.000
   57        0.002   0.021   0.000   0.023
   58        0.002   0.042   0.000   0.044
   59        0.002   0.034   0.000   0.036
   60        0.002   0.061   0.000   0.064
   61        0.002   0.029   0.000   0.031
   62        0.002   0.057   0.000   0.059
   63        0.002   0.042   0.000   0.044
   64        0.002   0.028   0.000   0.030
   65        0.002   0.028   0.000   0.030
   66        0.002   0.028   0.000   0.030
   67        0.002   0.024   0.000   0.026
   68        0.001  -0.001   0.000  -0.000
   69        0.002   0.026   0.000   0.028
   70        0.002   0.040   0.000   0.043
   71        0.002   0.018   0.000   0.020
   72        0.002   0.029   0.000   0.031
   73        0.002   0.042   0.000   0.044
   74        0.002   0.038   0.000   0.040
   75        0.002   0.046   0.000   0.048
   76        0.002   0.037   0.000   0.039
   77        0.002   0.045   0.000   0.046
   78        0.002   0.025   0.000   0.027
   79        0.002   0.031   0.000   0.033
   80        0.002   0.044   0.000   0.047
   81        0.002   0.012   0.000   0.013
   82        0.002   0.051   0.000   0.053
   83        0.002   0.022   0.000   0.024
   84        0.002   0.031   0.000   0.033
   85        0.002   0.037   0.000   0.039
   86        0.002   0.022   0.000   0.024
   87        0.002   0.038   0.000   0.040
   88        0.002   0.051   0.000   0.053
--------------------------------------------------
tot          0.421   2.088  44.067  46.576
 

 total amount of memory used by VASP MPI-rank0   104119. kBytes
=======================================================================

   base      :      30000. kBytes
   nonlr-proj:      13677. kBytes
   fftplans  :       1316. kBytes
   grid      :      22786. kBytes
   one-center:       2737. kBytes
   wavefun   :      33603. kBytes
 
  
  
 General timing and accounting informations for this job:
 ========================================================
  
                  Total CPU time used (sec):      676.278
                            User time (sec):      671.998
                          System time (sec):        4.280
                         Elapsed time (sec):      679.487
  
                   Maximum memory used (kb):      199264.
                   Average memory used (kb):           0.
  
                          Minor page faults:       286652
                          Major page faults:            0
                 Voluntary context switches:         4335
