 vasp.5.4.4.18Apr17-6-g9f103f2a35 (build Dec 02 2020 12:53:39) complex          
  
 executed on             LinuxIFC date 2021.08.03  04:30:52
 running on   96 total cores
 distrk:  each k-point on   96 cores,    1 groups
 distr:  one band on NCORES_PER_BAND=   1 cores,   96 groups


--------------------------------------------------------------------------------------------------------


 INCAR:
 POTCAR:    PAW_PBE Na_pv 19Sep2006               
 POTCAR:    PAW_PBE Mg_pv 13Apr2007               
 POTCAR:    PAW_PBE Mn_pv 02Aug2007               
 POTCAR:    PAW_PBE O 08Apr2002                   

 ----------------------------------------------------------------------------- 
|                                                                             |
|           W    W    AA    RRRRR   N    N  II  N    N   GGGG   !!!           |
|           W    W   A  A   R    R  NN   N  II  NN   N  G    G  !!!           |
|           W    W  A    A  R    R  N N  N  II  N N  N  G       !!!           |
|           W WW W  AAAAAA  RRRRR   N  N N  II  N  N N  G  GGG   !            |
|           WW  WW  A    A  R   R   N   NN  II  N   NN  G    G                |
|           W    W  A    A  R    R  N    N  II  N    N   GGGG   !!!           |
|                                                                             |
|      For optimal performance we recommend to set                            |
|        NCORE= 4 - approx SQRT( number of cores)                             |
|      NCORE specifies how many cores store one orbital (NPAR=cpu/NCORE).     |
|      This setting can  greatly improve the performance of VASP for DFT.     |
|      The default,   NCORE=1            might be grossly inefficient         |
|      on modern multi-core architectures or massively parallel machines.     |
|      Do your own testing !!!!                                               |
|      Unfortunately you need to use the default for GW and RPA calculations. |
|      (for HF NCORE is supported but not extensively tested yet)             |
|                                                                             |
 ----------------------------------------------------------------------------- 

 POTCAR:    PAW_PBE Na_pv 19Sep2006               
   VRHFIN =Na: p6s1                                                             
   LEXCH  = PE                                                                  
   EATOM  =   766.0439 eV,   56.3026 Ry                                         
                                                                                
   TITEL  = PAW_PBE Na_pv 19Sep2006                                             
   LULTRA =        F    use ultrasoft PP ?                                      
   IUNSCR =        1    unscreen: 0-lin 1-nonlin 2-no                           
   RPACOR =    1.800    partial core radius                                     
   POMASS =   22.990; ZVAL   =    7.000    mass and valenz                      
   RCORE  =    2.200    outmost cutoff radius                                   
   RWIGS  =    2.200; RWIGS  =    1.164    wigner-seitz radius (au A)           
   ENMAX  =  259.561; ENMIN  =  194.671 eV                                      
   ICORE  =        2    local potential                                         
   LCOR   =        T    correct aug charges                                     
   LPAW   =        T    paw PP                                                  
   EAUG   =  368.056                                                            
   DEXC   =    0.000                                                            
   RMAX   =    2.245    core radius for proj-oper                               
   RAUG   =    1.300    factor for augmentation sphere                          
   RDEP   =    2.259    radius for radial grids                                 
   RDEPT  =    1.738    core radius for aug-charge                              
                                                                                
   Atomic configuration                                                         
    5 entries                                                                   
     n  l   j            E        occ.                                          
     1  0  0.50     -1033.6933   2.0000                                         
     2  0  0.50       -56.7526   2.0000                                         
     2  1  1.50       -28.6721   6.0000                                         
     3  0  0.50        -2.7440   1.0000                                         
     3  2  1.50        -1.3606   0.0000                                         
   Description                                                                  
     l       E           TYP  RCUT    TYP  RCUT                                 
     1    -28.6720912     23  2.000                                             
     1      6.8029130     23  2.000                                             
     0     -2.7439560     23  2.200                                             
     0     34.0145650     23  2.200                                             
     2     -1.3605826     23  2.200                                             
  local pseudopotential read in
  partial core-charges read in
  partial kinetic energy density read in
  atomic valenz-charges read in
  non local Contribution for L=           1  read in
    real space projection operators read in
  non local Contribution for L=           1  read in
    real space projection operators read in
  non local Contribution for L=           0  read in
    real space projection operators read in
  non local Contribution for L=           0  read in
    real space projection operators read in
    PAW grid and wavefunctions read in
 
   number of l-projection  operators is LMAX  =           4
   number of lm-projection operators is LMMAX =           8
 
 POTCAR:    PAW_PBE Mg_pv 13Apr2007               
   VRHFIN =Mg: p6s2                                                             
   LEXCH  = PE                                                                  
   EATOM  =  1056.7344 eV,   77.6678 Ry                                         
                                                                                
   TITEL  = PAW_PBE Mg_pv 13Apr2007                                             
   LULTRA =        F    use ultrasoft PP ?                                      
   IUNSCR =        1    unscreen: 0-lin 1-nonlin 2-no                           
   RPACOR =    1.500    partial core radius                                     
   POMASS =   24.305; ZVAL   =    8.000    mass and valenz                      
   RCORE  =    2.000    outmost cutoff radius                                   
   RWIGS  =    2.000; RWIGS  =    1.058    wigner-seitz radius (au A)           
   ENMAX  =  403.929; ENMIN  =  302.947 eV                                      
   RCLOC  =    1.506    cutoff for local pot                                    
   LCOR   =        T    correct aug charges                                     
   LPAW   =        T    paw PP                                                  
   EAUG   =  758.780                                                            
   DEXC   =    0.000                                                            
   RMAX   =    2.045    core radius for proj-oper                               
   RAUG   =    1.300    factor for augmentation sphere                          
   RDEP   =    2.025    radius for radial grids                                 
   RDEPT  =    1.557    core radius for aug-charge                              
                                                                                
   Atomic configuration                                                         
    5 entries                                                                   
     n  l   j            E        occ.                                          
     1  0  0.50     -1259.6230   2.0000                                         
     2  0  0.50       -79.8442   2.0000                                         
     2  1  1.50       -46.6121   6.0000                                         
     3  0  0.50        -4.7055   2.0000                                         
     3  2  1.50        -1.3606   0.0000                                         
   Description                                                                  
     l       E           TYP  RCUT    TYP  RCUT                                 
     1    -46.6121073     23  1.600                                             
     1      2.7211652     23  1.600                                             
     0     -4.7054661     23  2.000                                             
     0     61.2262170     23  2.000                                             
     2     -1.3605826     23  2.000                                             
  local pseudopotential read in
  partial core-charges read in
  partial kinetic energy density read in
  atomic valenz-charges read in
  non local Contribution for L=           1  read in
    real space projection operators read in
  non local Contribution for L=           1  read in
    real space projection operators read in
  non local Contribution for L=           0  read in
    real space projection operators read in
  non local Contribution for L=           0  read in
    real space projection operators read in
  non local Contribution for L=           2  read in
    real space projection operators read in
    PAW grid and wavefunctions read in
 
   number of l-projection  operators is LMAX  =           5
   number of lm-projection operators is LMMAX =          13
 
 POTCAR:    PAW_PBE Mn_pv 02Aug2007               
   VRHFIN =Mn: 3p4s3d                                                           
   LEXCH  = PE                                                                  
   EATOM  =  2025.2664 eV,  148.8529 Ry                                         
                                                                                
   TITEL  = PAW_PBE Mn_pv 02Aug2007                                             
   LULTRA =        F    use ultrasoft PP ?                                      
   IUNSCR =        1    unscreen: 0-lin 1-nonlin 2-no                           
   RPACOR =    2.080    partial core radius                                     
   POMASS =   54.938; ZVAL   =   13.000    mass and valenz                      
   RCORE  =    2.300    outmost cutoff radius                                   
   RWIGS  =    2.500; RWIGS  =    1.323    wigner-seitz radius (au A)           
   ENMAX  =  269.864; ENMIN  =  202.398 eV                                      
   ICORE  =        3    local potential                                         
   LCOR   =        T    correct aug charges                                     
   LPAW   =        T    paw PP                                                  
   EAUG   =  569.085                                                            
   DEXC   =    0.000                                                            
   RMAX   =    2.343    core radius for proj-oper                               
   RAUG   =    1.300    factor for augmentation sphere                          
   RDEP   =    2.338    radius for radial grids                                 
   RDEPT  =    1.798    core radius for aug-charge                              
                                                                                
   Atomic configuration                                                         
    8 entries                                                                   
     n  l   j            E        occ.                                          
     1  0  0.50     -6424.8287   2.0000                                         
     2  0  0.50      -739.1154   2.0000                                         
     2  1  1.50      -625.3949   6.0000                                         
     3  0  0.50       -81.6100   2.0000                                         
     3  1  1.50       -50.4667   6.0000                                         
     3  2  2.50        -3.3745   6.0000                                         
     4  0  0.50        -4.1331   1.0000                                         
     4  3  2.50        -1.3606   0.0000                                         
   Description                                                                  
     l       E           TYP  RCUT    TYP  RCUT                                 
     1    -50.4666628     23  2.000                                             
     1     -1.3605826     23  2.000                                             
     2     -3.3744729     23  2.300                                             
     2     -4.7350555     23  2.300                                             
     0     -4.1331431     23  2.300                                             
     0      7.6656591     23  2.300                                             
     3      9.5240782     23  2.300                                             
  local pseudopotential read in
  partial core-charges read in
  partial kinetic energy density read in
  atomic valenz-charges read in
  non local Contribution for L=           1  read in
    real space projection operators read in
  non local Contribution for L=           1  read in
    real space projection operators read in
  non local Contribution for L=           2  read in
    real space projection operators read in
  non local Contribution for L=           2  read in
    real space projection operators read in
  non local Contribution for L=           0  read in
    real space projection operators read in
  non local Contribution for L=           0  read in
    real space projection operators read in
    PAW grid and wavefunctions read in
 
   number of l-projection  operators is LMAX  =           6
   number of lm-projection operators is LMMAX =          18
 
 POTCAR:    PAW_PBE O 08Apr2002                   
   VRHFIN =O: s2p4                                                              
   LEXCH  = PE                                                                  
   EATOM  =   432.3788 eV,   31.7789 Ry                                         
                                                                                
   TITEL  = PAW_PBE O 08Apr2002                                                 
   LULTRA =        F    use ultrasoft PP ?                                      
   IUNSCR =        1    unscreen: 0-lin 1-nonlin 2-no                           
   RPACOR =    1.200    partial core radius                                     
   POMASS =   16.000; ZVAL   =    6.000    mass and valenz                      
   RCORE  =    1.520    outmost cutoff radius                                   
   RWIGS  =    1.550; RWIGS  =    0.820    wigner-seitz radius (au A)           
   ENMAX  =  400.000; ENMIN  =  300.000 eV                                      
   ICORE  =        2    local potential                                         
   LCOR   =        T    correct aug charges                                     
   LPAW   =        T    paw PP                                                  
   EAUG   =  605.392                                                            
   DEXC   =    0.000                                                            
   RMAX   =    1.553    core radius for proj-oper                               
   RAUG   =    1.300    factor for augmentation sphere                          
   RDEP   =    1.550    radius for radial grids                                 
   RDEPT  =    1.329    core radius for aug-charge                              
                                                                                
   Atomic configuration                                                         
    4 entries                                                                   
     n  l   j            E        occ.                                          
     1  0  0.50      -514.6923   2.0000                                         
     2  0  0.50       -23.9615   2.0000                                         
     2  1  0.50        -9.0305   4.0000                                         
     3  2  1.50        -9.5241   0.0000                                         
   Description                                                                  
     l       E           TYP  RCUT    TYP  RCUT                                 
     0    -23.9615318     23  1.200                                             
     0     -9.5240782     23  1.200                                             
     1     -9.0304911     23  1.520                                             
     1      8.1634956     23  1.520                                             
     2     -9.5240782      7  1.500                                             
  local pseudopotential read in
  partial core-charges read in
  partial kinetic energy density read in
  kinetic energy density of atom read in
  atomic valenz-charges read in
  non local Contribution for L=           0  read in
    real space projection operators read in
  non local Contribution for L=           0  read in
    real space projection operators read in
  non local Contribution for L=           1  read in
    real space projection operators read in
  non local Contribution for L=           1  read in
    real space projection operators read in
    PAW grid and wavefunctions read in
 
   number of l-projection  operators is LMAX  =           4
   number of lm-projection operators is LMMAX =           8
 
 Optimization of the real space projectors (new method)

 maximal supplied QI-value         = 17.01
 optimisation between [QCUT,QGAM] = [ 10.20, 20.41] = [ 29.16,116.64] Ry 
 Optimized for a Real-space Cutoff    1.30 Angstroem

   l    n(q)    QCUT    max X(q) W(low)/X(q) W(high)/X(q)  e(spline) 
   1      7    10.205     4.940    0.23E-03    0.84E-03    0.11E-06
   1      7    10.205     6.253    0.40E-03    0.13E-02    0.18E-06
   0      8    10.205    37.438    0.23E-03    0.37E-03    0.42E-07
   0      8    10.205     9.606    0.16E-03    0.26E-03    0.31E-07
 Optimization of the real space projectors (new method)

 maximal supplied QI-value         = 18.90
 optimisation between [QCUT,QGAM] = [ 10.20, 20.41] = [ 29.16,116.64] Ry 
 Optimized for a Real-space Cutoff    1.26 Angstroem

   l    n(q)    QCUT    max X(q) W(low)/X(q) W(high)/X(q)  e(spline) 
   1      7    10.205     2.974    0.63E-04    0.14E-03    0.13E-06
   1      7    10.205     4.279    0.11E-03    0.45E-03    0.24E-06
   0      8    10.205    16.381    0.44E-03    0.15E-03    0.55E-07
   0      8    10.205     5.611    0.31E-03    0.11E-03    0.40E-07
   2      7    10.205     4.652    0.50E-03    0.47E-03    0.57E-07
 Optimization of the real space projectors (new method)

 maximal supplied QI-value         = 16.25
 optimisation between [QCUT,QGAM] = [ 10.24, 20.48] = [ 29.35,117.42] Ry 
 Optimized for a Real-space Cutoff    1.34 Angstroem

   l    n(q)    QCUT    max X(q) W(low)/X(q) W(high)/X(q)  e(spline) 
   1      8    10.239     3.658    0.23E-03    0.30E-03    0.98E-07
   1      8    10.239     5.612    0.32E-03    0.65E-03    0.21E-06
   2      7    10.239    55.373    0.42E-03    0.45E-03    0.65E-07
   2      7    10.239    50.863    0.43E-03    0.48E-03    0.67E-07
   0      8    10.239    79.536    0.11E-03    0.21E-03    0.56E-07
   0      8    10.239    38.668    0.96E-04    0.19E-03    0.52E-07
 Optimization of the real space projectors (new method)

 maximal supplied QI-value         = 24.76
 optimisation between [QCUT,QGAM] = [ 10.15, 20.30] = [ 28.85,115.39] Ry 
 Optimized for a Real-space Cutoff    1.38 Angstroem

   l    n(q)    QCUT    max X(q) W(low)/X(q) W(high)/X(q)  e(spline) 
   0      8    10.150    20.381    0.22E-03    0.32E-03    0.29E-06
   0      8    10.150    15.268    0.23E-03    0.35E-03    0.30E-06
   1      8    10.150     5.964    0.46E-03    0.53E-03    0.21E-06
   1      8    10.150     5.382    0.38E-03    0.45E-03    0.19E-06
  PAW_PBE Na_pv 19Sep2006               :
 energy of atom  1       EATOM= -766.0439
 kinetic energy error for atom=    0.0103 (will be added to EATOM!!)
  PAW_PBE Mg_pv 13Apr2007               :
 energy of atom  2       EATOM=-1056.7344
 kinetic energy error for atom=    0.0820 (will be added to EATOM!!)
  PAW_PBE Mn_pv 02Aug2007               :
 energy of atom  3       EATOM=-2025.2664
 kinetic energy error for atom=    0.0284 (will be added to EATOM!!)
  PAW_PBE O 08Apr2002                   :
 energy of atom  4       EATOM= -432.3788
 kinetic energy error for atom=    0.1156 (will be added to EATOM!!)
 
 
 POSCAR: Na Mg Mn  O                             
  positions in cartesian coordinates
  No initial velocities read in

 METAGGA = SCAN     LMAXTAU =  6    LMIXTAU =  F

 exchange correlation table for  LEXCH =        8
   RHO(1)=    0.500       N(1)  =     2000
   RHO(2)=  100.500       N(2)  =     4000

 VTST: version 3.2, (02/03/18)

 CHAIN: initializing optimizer
 
 OPT: Using VASP Dynamics algorithm
 CHAIN: Read ICHAIN            0
 
 POSCAR: Na Mg Mn  O                             
  positions in cartesian coordinates
  No initial velocities read in
 


--------------------------------------------------------------------------------------------------------


 ion  position               nearest neighbor table
   1  0.152  0.907  0.252-  76 2.22  67 2.29  11 2.60
   2  0.487  0.754  0.748-  84 2.23  82 2.33
   3  0.681  0.146  0.751-  57 2.22  60 2.35
   4  0.030  0.290  0.757-  83 2.30  80 2.31
   5  0.495  0.956  0.254-  42 2.28  51 2.32  31 2.91  29 2.94
   6  0.026  0.468  0.260-  86 2.15  75 2.36  39 2.88  37 2.89
   7  0.875  0.931  0.750-  72 2.27  69 2.35  61 2.35  58 2.36
   8  0.834  0.596  0.743-  70 2.12  68 2.33  71 2.38  36 2.83  34 2.94
   9  0.301  0.270  0.247-  41 2.27  78 2.37  50 2.38
  10  0.655  0.411  0.252-  52 2.15  43 2.20
  11  0.854  0.785  0.249-  76 2.16   1 2.60
  12  0.318  0.103  0.741-  44 2.26  46 2.34  28 2.82
  13  0.165  0.639  0.760-  73 2.29  84 2.30
  14  0.467  0.434  0.745-  45 2.30  85 2.30  48 2.32  35 2.86  33 2.92
  15  0.845  0.116  0.250-  63 2.35  55 2.36  32 2.85  30 2.90
  16  0.478  0.620  0.251-  78 2.29  87 2.29  79 2.34
  17  0.678  0.277  0.006-  43 2.00  66 2.05  60 2.05  49 2.08  71 2.11  53 2.11
  18  0.653  0.278  0.499-  68 2.01  46 2.01  52 2.03  75 2.13  62 2.14  57 2.19  28 2.74  35 2.81

  19  0.170  0.276  0.009-  61 2.04  55 2.05  83 2.07  78 2.08  41 2.14  48 2.17  30 2.83  25 2.84
                            37 2.84
  20  0.171  0.279  0.503-  45 1.97  58 2.03  87 2.06  80 2.14  64 2.16  50 2.21  27 2.85
  21  0.178  0.778  0.999-  67 1.96  47 1.97  42 2.04  73 2.05  77 2.09  84 2.12  29 2.84  25 2.85

  22  0.163  0.785  0.498-  44 1.92  86 2.03  51 2.03  81 2.05  76 2.05  70 2.19  27 2.80  28 2.85

  23  0.675  0.776  0.003-  79 1.97  65 2.05  59 2.09  85 2.10  54 2.12  72 2.25
  24  0.666  0.794  0.501-  56 1.93  88 2.01  69 2.02  82 2.06  63 2.10  74 2.24  31 2.76  32 2.80

  25  0.022  0.950  0.000-  54 1.87  47 1.88  41 1.89  67 1.90  72 1.92  61 1.97  26 2.81  19 2.84
                            21 2.85  34 2.92  30 2.93
  26  0.345  0.111  0.010-  41 1.88  42 1.88  49 1.90  47 1.95  43 1.96  48 1.96  25 2.81  33 2.84
                            29 2.91
  27  0.006  0.950  0.497-  50 1.86  63 1.88  58 1.89  44 1.95  69 1.97  76 2.04  22 2.80  20 2.85
                            28 2.87  36 2.91  32 2.99
  28  0.337  0.113  0.490-  51 1.84  50 1.88  44 1.89  46 1.92  45 1.94  52 1.98  18 2.74  12 2.82
                            22 2.85  27 2.87  31 2.88  35 2.97
  29  0.505  0.936  0.993-  84 1.90  79 1.93  49 1.95  53 1.96  42 1.96  59 1.99  21 2.84  38 2.84
                            26 2.91   5 2.94  30 2.95
  30  0.844  0.110  0.992-  61 1.89  59 1.93  60 1.95  55 1.95  53 1.96  54 1.98  19 2.83  15 2.90
                            37 2.90  25 2.93  29 2.95
  31  0.492  0.938  0.513-  51 1.86  81 1.89  88 1.92  46 1.94  56 1.95  62 2.01  24 2.76  40 2.85
                            28 2.88   5 2.91  32 2.92
  32  0.828  0.117  0.504-  62 1.80  57 1.88  64 1.91  58 1.97  56 1.99  63 2.00  24 2.80  39 2.81
                            15 2.85  31 2.92  27 2.99
  33  0.507  0.438  0.003-  78 1.87  48 1.90  43 1.92  71 1.95  85 1.97  65 2.02  26 2.84  38 2.91
                            14 2.92  34 2.93
  34  0.844  0.614  0.004-  65 1.82  67 1.91  73 1.92  71 1.93  72 1.93  66 1.97  37 2.91  25 2.92
                            33 2.93   8 2.94
  35  0.507  0.455  0.492-  74 1.89  68 1.92  45 1.93  82 1.97  52 2.00  87 2.01  36 2.81  18 2.81
                            14 2.86  40 2.97  28 2.97
  36  0.830  0.615  0.491-  69 1.88  76 1.90  68 1.92  70 1.95  75 2.00  74 2.04  35 2.81   8 2.83
                            39 2.89  27 2.91
  37  0.010  0.444  0.003-  55 1.85  77 1.88  73 1.89  66 1.92  60 1.93  83 1.93  19 2.84  38 2.88
                             6 2.89  30 2.90  34 2.91
  38  0.342  0.608  0.997-  79 1.87  77 1.87  83 1.89  84 1.91  78 1.97  85 1.98  29 2.84  37 2.88
                            33 2.91
  39  0.987  0.441  0.514-  57 1.86  64 1.89  80 1.91  70 1.91  86 1.97  75 1.98  32 2.81   6 2.88
                            36 2.89  40 2.90
  40  0.320  0.610  0.501-  81 1.90  82 1.90  88 1.92  86 1.92  87 1.94  80 1.94  31 2.85  39 2.90
                            35 2.97
  41  0.180  0.094  0.100-  26 1.88  25 1.89  19 2.14   9 2.27
  42  0.353  0.952  0.094-  26 1.88  29 1.96  21 2.04   5 2.28
  43  0.510  0.281  0.099-  33 1.92  26 1.96  17 2.00  10 2.20
  44  0.179  0.958  0.584-  28 1.89  22 1.92  27 1.95  12 2.26
  45  0.349  0.283  0.581-  35 1.93  28 1.94  20 1.97  14 2.30
  46  0.485  0.105  0.594-  28 1.92  31 1.94  18 2.01  12 2.34
  47  0.182  0.951  0.912-  25 1.88  26 1.95  21 1.97
  48  0.355  0.275  0.909-  33 1.90  26 1.96  19 2.17  14 2.32
  49  0.496  0.103  0.912-  26 1.90  29 1.95  17 2.08
  50  0.167  0.088  0.401-  27 1.86  28 1.88  20 2.21   9 2.38
  51  0.352  0.957  0.416-  28 1.84  31 1.86  22 2.03   5 2.32
  52  0.493  0.284  0.391-  28 1.98  35 2.00  18 2.03  10 2.15
  53  0.674  0.087  0.092-  29 1.96  30 1.96  17 2.11
  54  0.868  0.959  0.090-  25 1.87  30 1.98  23 2.12
  55  0.990  0.279  0.092-  37 1.85  30 1.95  19 2.05  15 2.36
  56  0.665  0.950  0.602-  24 1.93  31 1.95  32 1.99
  57  0.837  0.274  0.601-  39 1.86  32 1.88  18 2.19   3 2.22
  58  0.991  0.101  0.588-  27 1.89  32 1.97  20 2.03   7 2.36
  59  0.680  0.952  0.898-  30 1.93  29 1.99  23 2.09
  60  0.852  0.283  0.907-  37 1.93  30 1.95  17 2.05   3 2.35
  61  0.004  0.107  0.905-  30 1.89  25 1.97  19 2.04   7 2.35
  62  0.668  0.094  0.414-  32 1.80  31 2.01  18 2.14
  63  0.856  0.965  0.406-  27 1.88  32 2.00  24 2.10  15 2.35
  64  0.983  0.286  0.414-  39 1.89  32 1.91  20 2.16
  65  0.688  0.606  0.094-  34 1.82  33 2.02  23 2.05
  66  0.855  0.453  0.098-  37 1.92  34 1.97  17 2.05
  67  0.010  0.782  0.087-  25 1.90  34 1.91  21 1.96   1 2.29
  68  0.669  0.460  0.587-  36 1.92  35 1.92  18 2.01   8 2.33
  69  0.836  0.776  0.582-  36 1.88  27 1.97  24 2.02   7 2.35
  70  0.974  0.599  0.599-  39 1.91  36 1.95   8 2.12  22 2.19
  71  0.680  0.458  0.909-  34 1.93  33 1.95  17 2.11   8 2.38
  72  0.874  0.783  0.904-  25 1.92  34 1.93  23 2.25   7 2.27
  73  0.997  0.596  0.913-  37 1.89  34 1.92  21 2.05  13 2.29
  74  0.657  0.605  0.389-  35 1.89  36 2.04  24 2.24
  75  0.842  0.450  0.399-  39 1.98  36 2.00  18 2.13   6 2.36
  76  0.987  0.773  0.396-  36 1.90  27 2.04  22 2.05  11 2.16   1 2.22
  77  0.180  0.596  0.088-  38 1.87  37 1.88  21 2.09
  78  0.360  0.455  0.095-  33 1.87  38 1.97  19 2.08  16 2.29   9 2.37
  79  0.497  0.768  0.085-  38 1.87  29 1.93  23 1.97  16 2.34
  80  0.158  0.456  0.601-  39 1.91  40 1.94  20 2.14   4 2.31
  81  0.329  0.772  0.595-  31 1.89  40 1.90  22 2.05
  82  0.485  0.610  0.585-  40 1.90  35 1.97  24 2.06   2 2.33
  83  0.175  0.453  0.909-  38 1.89  37 1.93  19 2.07   4 2.30
  84  0.354  0.771  0.900-  29 1.90  38 1.91  21 2.12   2 2.23  13 2.30
  85  0.502  0.596  0.901-  33 1.97  38 1.98  23 2.10  14 2.30
  86  0.150  0.599  0.414-  40 1.92  39 1.97  22 2.03   6 2.15
  87  0.334  0.458  0.403-  40 1.94  35 2.01  20 2.06  16 2.29
  88  0.483  0.778  0.414-  31 1.92  40 1.92  24 2.01
 
  LATTYP: Found a hexagonal cell.
 ALAT       =    10.0190000534
 C/A-ratio  =     1.1196726572
  
  Lattice vectors:
  
 A1 = (  10.0190000534,   0.0000000000,   0.0000000000)
 A2 = (  -5.0095000267,   8.6767085668,   0.0000000000)
 A3 = (   0.0000000000,   0.0000000000,  11.2180004120)


Analysis of symmetry for initial positions (statically):
=====================================================================
 Subroutine PRICEL returns:
 Original cell was already a primitive cell.
 

 Routine SETGRP: Setting up the symmetry group for a 
 hexagonal supercell.


 Subroutine GETGRP returns: Found  1 space group operations
 (whereof  1 operations were pure point group operations)
 out of a pool of 24 trial point group operations.


The static configuration has the point symmetry C_1 .


Analysis of symmetry for dynamics (positions and initial velocities):
=====================================================================
 Subroutine PRICEL returns:
 Original cell was already a primitive cell.
 

 Routine SETGRP: Setting up the symmetry group for a 
 hexagonal supercell.


 Subroutine GETGRP returns: Found  1 space group operations
 (whereof  1 operations were pure point group operations)
 out of a pool of 24 trial point group operations.


The dynamic configuration has the point symmetry C_1 .


Analysis of structural, dynamic, and magnetic symmetry:
=====================================================================
 Subroutine PRICEL returns:
 Original cell was already a primitive cell.
 

 Routine SETGRP: Setting up the symmetry group for a 
 hexagonal supercell.


 Subroutine GETGRP returns: Found  1 space group operations
 (whereof  1 operations were pure point group operations)
 out of a pool of 24 trial point group operations.


The magnetic configuration has the point symmetry C_1 .


 Subroutine INISYM returns: Found  1 space group operations
 (whereof  1 operations are pure point group operations),
 and found     1 'primitive' translations

 
 

Automatic generation of k-mesh.
 generate k-points for:    2    2    2
Space group operators:
 irot       det(A)        alpha          n_x          n_y          n_z        tau_x        tau_y        tau_z
    1     1.000000     0.000000     1.000000     0.000000     0.000000     0.000000     0.000000     0.000000
 
 Subroutine IBZKPT returns following result:
 ===========================================
 
 Found      8 irreducible k-points:
 
 Following reciprocal coordinates:
            Coordinates               Weight
  0.000000  0.000000  0.000000      1.000000
  0.500000 -0.000000 -0.000000      1.000000
  0.000000  0.500000  0.000000      1.000000
  0.500000  0.500000 -0.000000      1.000000
  0.000000  0.000000  0.500000      1.000000
  0.500000 -0.000000  0.500000      1.000000
  0.000000  0.500000  0.500000      1.000000
  0.500000  0.500000  0.500000      1.000000
 
 Following cartesian coordinates:
            Coordinates               Weight
  0.000000  0.000000  0.000000      1.000000
  0.049905  0.028813 -0.000000      1.000000
  0.000000  0.057626  0.000000      1.000000
  0.049905  0.086438 -0.000000      1.000000
  0.000000  0.000000  0.044571      1.000000
  0.049905  0.028813  0.044571      1.000000
  0.000000  0.057626  0.044571      1.000000
  0.049905  0.086438  0.044571      1.000000
 


--------------------------------------------------------------------------------------------------------




 Dimension of arrays:
   k-points           NKPTS =      8   k-points in BZ     NKDIM =      8   number of bands    NBANDS=    480
   number of dos      NEDOS =    301   number of ions     NIONS =     88
   non local maximal  LDIM  =      6   non local SUM 2l+1 LMDIM =     18
   total plane-waves  NPLWV = 140000
   max r-space proj   IRMAX =   1632   max aug-charges    IRDMAX=   4555
   dimension x,y,z NGX =    50 NGY =   50 NGZ =   56
   dimension x,y,z NGXF=   100 NGYF=  100 NGZF=  112
   support grid    NGXF=   100 NGYF=  100 NGZF=  112
   ions per type =              16   8  16  48
   NGX,Y,Z   is equivalent  to a cutoff of   8.30,  8.30,  8.30 a.u.
   NGXF,Y,Z  is equivalent  to a cutoff of  16.59, 16.59, 16.60 a.u.

 SYSTEM =  unknown system                          
 POSCAR =  Na Mg Mn  O                             

 Startparameter for this run:
   NWRITE =      2    write-flag & timer
   PREC   = normal    normal or accurate (medium, high low for compatibility)
   ISTART =      0    job   : 0-new  1-cont  2-samecut
   ICHARG =      1    charge: 1-file 2-atom 10-const
   ISPIN  =      2    spin polarized calculation?
   LNONCOLLINEAR =      F non collinear calculations
   LSORBIT =      F    spin-orbit coupling
   INIWAV =      1    electr: 0-lowe 1-rand  2-diag
   LASPH  =      T    aspherical Exc in radial PAW
   METAGGA=      F    non-selfconsistent MetaGGA calc.

 Electronic Relaxation 1
   ENCUT  =  400.0 eV  29.40 Ry    5.42 a.u.  16.34 16.34 18.29*2*pi/ulx,y,z
   ENINI  =  400.0     initial cutoff
   ENAUG  =  758.8 eV  augmentation charge cutoff
   NELM   =    200;   NELMIN=  6; NELMDL=-12     # of ELM steps 
   EDIFF  = 0.1E-04   stopping-criterion for ELM
   LREAL  =      T    real-space projection
   NLSPLINE    = F    spline interpolate recip. space projectors
   LCOMPAT=      F    compatible to vasp.4.4
   GGA_COMPAT  = T    GGA compatible to vasp.4.4-vasp.4.6
   LMAXPAW     = -100 max onsite density
   LMAXMIX     =    4 max onsite mixed and CHGCAR
   VOSKOWN=      0    Vosko Wilk Nusair interpolation
   ROPT   =   -0.00050  -0.00050  -0.00050  -0.00050
 Ionic relaxation
   EDIFFG = 0.1E-03   stopping-criterion for IOM
   NSW    =      1    number of steps for IOM
   NBLOCK =      1;   KBLOCK =      1    inner block; outer block 
   IBRION =     -1    ionic relax: 0-MD 1-quasi-New 2-CG
   NFREE  =      0    steps in history (QN), initial steepest desc. (CG)
   ISIF   =      2    stress and relaxation
   IWAVPR =     10    prediction:  0-non 1-charg 2-wave 3-comb
   ISYM   =      2    0-nonsym 1-usesym 2-fastsym
   LCORR  =      T    Harris-Foulkes like correction to forces

   POTIM  = 0.5000    time-step for ionic-motion
   TEIN   =    0.0    initial temperature
   TEBEG  =    0.0;   TEEND  =   0.0 temperature during run
   SMASS  =  -3.00    Nose mass-parameter (am)
   estimated Nose-frequenzy (Omega)   =  0.10E-29 period in steps =****** mass=  -0.229E-26a.u.
   SCALEE = 1.0000    scale energy and forces
   NPACO  =    256;   APACO  = 16.0  distance and # of slots for P.C.
   PSTRESS=    0.0 pullay stress

  Mass of Ions in am
   POMASS =  22.99 24.30 54.94 16.00
  Ionic Valenz
   ZVAL   =   7.00  8.00 13.00  6.00
  Atomic Wigner-Seitz radii
   RWIGS  =  -1.00 -1.00 -1.00 -1.00
  virtual crystal weights 
   VCA    =   1.00  1.00  1.00  1.00
   NELECT =     672.0000    total number of electrons
   NUPDOWN=      48.0000    fix difference up-down

 DOS related values:
   EMIN   =  10.00;   EMAX   =-10.00  energy-range for DOS
   EFERMI =   0.00
   ISMEAR =     0;   SIGMA  =   0.05  broadening in eV -4-tet -1-fermi 0-gaus

 Electronic relaxation 2 (details)
   IALGO  =     48    algorithm
   LDIAG  =      T    sub-space diagonalisation (order eigenvalues)
   LSUBROT=      F    optimize rotation matrix (better conditioning)
   TURBO    =      0    0=normal 1=particle mesh
   IRESTART =      0    0=no restart 2=restart with 2 vectors
   NREBOOT  =      0    no. of reboots
   NMIN     =      0    reboot dimension
   EREF     =   0.00    reference energy to select bands
   IMIX   =      4    mixing-type and parameters
     AMIX     =   0.40;   BMIX     =  1.00
     AMIX_MAG =   1.60;   BMIX_MAG =  1.00
     AMIN     =   0.10
     WC   =   100.;   INIMIX=   1;  MIXPRE=   1;  MAXMIX= -45

 Intra band minimization:
   WEIMIN = 0.0000     energy-eigenvalue tresh-hold
   EBREAK =  0.52E-08  absolut break condition
   DEPER  =   0.30     relativ break condition  

   TIME   =   0.40     timestep for ELM

  volume/ion in A,a.u.               =      11.08        74.78
  Fermi-wavevector in a.u.,A,eV,Ry     =   1.445993  2.732531 28.448379  2.090897
  Thomas-Fermi vector in A             =   2.564112
 
 Write flags
   LWAVE        =      F    write WAVECAR
   LDOWNSAMPLE  =      F    k-point downsampling of WAVECAR
   LCHARG       =      F    write CHGCAR
   LVTOT        =      F    write LOCPOT, total local potential
   LVHAR        =      F    write LOCPOT, Hartree potential only
   LELF         =      F    write electronic localiz. function (ELF)
   LORBIT       =     11    0 simple, 1 ext, 2 COOP (PROOUT), +10 PAW based schemes


 Dipole corrections
   LMONO  =      F    monopole corrections only (constant potential shift)
   LDIPOL =      F    correct potential (dipole corrections)
   IDIPOL =      0    1-x, 2-y, 3-z, 4-all directions 
   EPSILON=  1.0000000 bulk dielectric constant

 Exchange correlation treatment:
   GGA     =    --    GGA type
   LEXCH   =     8    internal setting for exchange type
   VOSKOWN=      0    Vosko Wilk Nusair interpolation
   LHFCALC =     F    Hartree Fock is set to
   LHFONE  =     F    Hartree Fock one center treatment
   AEXX    =    0.0000 exact exchange contribution

 Linear response parameters
   LEPSILON=     F    determine dielectric tensor
   LRPA    =     F    only Hartree local field effects (RPA)
   LNABLA  =     F    use nabla operator in PAW spheres
   LVEL    =     F    velocity operator in full k-point grid
   LINTERFAST=   F  fast interpolation
   KINTER  =     0    interpolate to denser k-point grid
   CSHIFT  =0.1000    complex shift for real part using Kramers Kronig
   OMEGAMAX=  -1.0    maximum frequency
   DEG_THRESHOLD= 0.2000000E-02 threshold for treating states as degnerate
   RTIME   =   -0.100 relaxation time in fs
  (WPLASMAI=    0.000 imaginary part of plasma frequency in eV, 0.658/RTIME)
   DFIELD  = 0.0000000 0.0000000 0.0000000 field for delta impulse in time
 
 Orbital magnetization related:
   ORBITALMAG=     F  switch on orbital magnetization
   LCHIMAG   =     F  perturbation theory with respect to B field
   DQ        =  0.001000  dq finite difference perturbation B field
   LLRAUG    =     F  two centre corrections for induced B field



--------------------------------------------------------------------------------------------------------


 Static calculation
 charge density and potential will be updated during run
 spin polarized calculation
 RMM-DIIS sequential band-by-band
 perform sub-space diagonalisation
    before iterative eigenvector-optimisation
 modified Broyden-mixing scheme, WC =      100.0
 initial mixing is a Kerker type mixing with AMIX =  0.4000 and BMIX =      1.0000
 Hartree-type preconditioning will be used
 using additional bands          144
 real space projection scheme for non local part
 use partial core corrections
 calculate Harris-corrections to forces 
   (improved forces if not selfconsistent)
 use gradient corrections 
 use of overlap-Matrix (Vanderbilt PP)
 Gauss-broadening in eV      SIGMA  =   0.05


--------------------------------------------------------------------------------------------------------


  energy-cutoff  :      400.00
  volume of cell :      975.20
      direct lattice vectors                 reciprocal lattice vectors
    10.019000053  0.000000000  0.000000000     0.099810360  0.057625538 -0.000000000
    -5.009500027  8.676708567  0.000000000     0.000000000  0.115251076  0.000000000
     0.000000000  0.000000000 11.218000412     0.000000000  0.000000000  0.089142446

  length of vectors
    10.019000053 10.019000053 11.218000412     0.115251076  0.115251076  0.089142446


 
 k-points in units of 2pi/SCALE and weight: read from INCAR                         
   0.00000000  0.00000000  0.00000000       0.125
   0.04990518  0.02881277 -0.00000000       0.125
   0.00000000  0.05762554  0.00000000       0.125
   0.04990518  0.08643831 -0.00000000       0.125
   0.00000000  0.00000000  0.04457122       0.125
   0.04990518  0.02881277  0.04457122       0.125
   0.00000000  0.05762554  0.04457122       0.125
   0.04990518  0.08643831  0.04457122       0.125
 
 k-points in reciprocal lattice and weights: read from INCAR                         
   0.00000000  0.00000000  0.00000000       0.125
   0.50000000 -0.00000000 -0.00000000       0.125
   0.00000000  0.50000000  0.00000000       0.125
   0.50000000  0.50000000 -0.00000000       0.125
   0.00000000  0.00000000  0.50000000       0.125
   0.50000000 -0.00000000  0.50000000       0.125
   0.00000000  0.50000000  0.50000000       0.125
   0.50000000  0.50000000  0.50000000       0.125
 
 position of ions in fractional coordinates (direct lattice) 
   0.15215650  0.90726737  0.25199856
   0.48656643  0.75412698  0.74787303
   0.68130052  0.14628803  0.75060079
   0.03033789  0.29013981  0.75696735
   0.49483498  0.95644708  0.25390443
   0.02619110  0.46827204  0.25965233
   0.87501763  0.93077191  0.75028523
   0.83445904  0.59618229  0.74280974
   0.30124992  0.26984788  0.24703155
   0.65475674  0.41082102  0.25157692
   0.85385034  0.78454668  0.24899803
   0.31811311  0.10257017  0.74068904
   0.16509575  0.63941198  0.75998482
   0.46694814  0.43354689  0.74496610
   0.84506668  0.11574468  0.25012212
   0.47818048  0.61968067  0.25096808
   0.67826501  0.27723070  0.00621391
   0.65285336  0.27760411  0.49855320
   0.16979971  0.27614619  0.00890537
   0.17058849  0.27870707  0.50255570
   0.17759988  0.77817411  0.99946511
   0.16281118  0.78471807  0.49766178
   0.67491888  0.77645918  0.00280381
   0.66610742  0.79407530  0.50094578
   0.02158045  0.94994201  0.00032311
   0.34528721  0.11067423  0.01007399
   0.00571504  0.95011258  0.49687019
   0.33685317  0.11309150  0.48996254
   0.50463864  0.93552641  0.99293988
   0.84429165  0.10958741  0.99168297
   0.49220316  0.93790289  0.51295951
   0.82772609  0.11684154  0.50370385
   0.50708594  0.43826411  0.00312861
   0.84427341  0.61386872  0.00447341
   0.50659298  0.45502047  0.49150738
   0.83045457  0.61515608  0.49106523
   0.01018569  0.44392064  0.00298959
   0.34162034  0.60776848  0.99663384
   0.98717841  0.44072473  0.51424494
   0.32048932  0.61011269  0.50119271
   0.17971491  0.09407600  0.10015421
   0.35329451  0.95186101  0.09356391
   0.51019415  0.28125066  0.09928240
   0.17862044  0.95816513  0.58386876
   0.34909378  0.28313617  0.58079602
   0.48480223  0.10515093  0.59396236
   0.18199809  0.95128833  0.91248882
   0.35508744  0.27547082  0.90922621
   0.49606609  0.10315525  0.91177568
   0.16739080  0.08824003  0.40106345
   0.35199503  0.95681969  0.41603493
   0.49293885  0.28404319  0.39133801
   0.67358485  0.08735536  0.09178909
   0.86846382  0.95871027  0.08951684
   0.98961398  0.27939166  0.09227402
   0.66485613  0.94951265  0.60242376
   0.83722965  0.27427566  0.60058564
   0.99111423  0.10055564  0.58826883
   0.67980471  0.95159466  0.89766443
   0.85246220  0.28315576  0.90656977
   0.00448770  0.10652807  0.90541983
   0.66831907  0.09372967  0.41417720
   0.85572129  0.96504873  0.40627205
   0.98258862  0.28628713  0.41421910
   0.68801442  0.60588413  0.09350151
   0.85517546  0.45322947  0.09804778
   0.01015279  0.78188059  0.08714566
   0.66858730  0.45979763  0.58652075
   0.83599629  0.77582530  0.58200123
   0.97439568  0.59922953  0.59941253
   0.68016960  0.45832702  0.90936884
   0.87363711  0.78317601  0.90434120
   0.99732537  0.59649923  0.91337133
   0.65743692  0.60468321  0.38909252
   0.84221314  0.45045883  0.39919414
   0.98737574  0.77280918  0.39580405
   0.18029019  0.59625260  0.08762453
   0.35978710  0.45450184  0.09487341
   0.49710751  0.76832821  0.08452308
   0.15815152  0.45568662  0.60102868
   0.32937580  0.77224675  0.59492421
   0.48543744  0.60982687  0.58463182
   0.17543206  0.45253335  0.90862004
   0.35356831  0.77108272  0.90024957
   0.50242686  0.59625605  0.90142625
   0.15024277  0.59923990  0.41391512
   0.33408383  0.45845610  0.40268050
   0.48281979  0.77759786  0.41401496
 
 position of ions in cartesian coordinates  (Angst):
  -3.02049992  7.87209457  2.82692000
   1.09711000  6.54334000  8.38964000
   6.09312008  1.26929857  8.42024000
  -1.14950008  2.51745857  8.49166000
   0.16642997  8.29881257  2.84830000
  -2.08340011  4.06306000  2.91278000
   4.10409981  8.07603657  8.41670000
   5.37387000  5.17290000  8.33284000
   1.66642003  2.34139143  2.77120000
   4.50199992  3.56457430  2.82219000
   4.62454000  6.80728287  2.79326000
   2.67335003  0.88997143  8.30905000
  -1.54904003  5.54799143  8.52551000
   2.50650032  3.76176000  8.35703000
   7.88690016  1.00428287  2.80587000
   1.68659992  5.37678857  2.81536000
   5.40675000  2.40545000  0.06970760
   5.15028000  2.40869000  5.59277000
   0.31786900  2.39604000  0.09990040
   0.31294300  2.41826000  5.63767000
  -2.11889000  6.75199000 11.21200000
  -2.29984000  6.80877000  5.58277000
   2.87234000  6.73711000  0.03145310
   2.69581000  6.88996000  5.61961000
  -4.54252005  8.24237000  0.00362467
   2.90501000  0.96028800  0.11301000
  -4.70233005  8.24385000  5.57389000
   2.80840000  0.98126200  5.49640000
   0.36945500  8.11729000 11.13880000
   7.90998000  0.95085800 11.12470000
   0.23295900  8.13791000  5.75438000
   7.70767000  1.01380000  5.65055000
   2.88501000  3.80269000  0.03509680
   5.38360000  5.32636000  0.05018270
   2.79613000  3.94808000  5.51373000
   5.23870000  5.33753000  5.50877000
  -2.12177005  3.85177000  0.03353720
   0.37807800  5.27343000 11.18023881
   7.68273000  3.82404000  5.76880000
   0.15462300  5.29377000  5.62238000
   1.32929000  0.81627000  1.12353000
  -1.22869003  8.25902057  1.04960000
   3.70271000  2.44033000  1.11375000
  -3.01033003  8.31371957  6.54984000
   2.07920000  2.45669000  6.51537000
   4.33048000  0.91236400  6.66307000
  -2.94204003  8.25405157 10.23630000
   2.17765000  2.39018000 10.19970000
   4.45333000  0.89504800 10.22830000
   1.23505000  0.76563300  4.49913000
  -1.26655003  8.30204557  4.66708000
   3.51584000  2.46456000  4.39003000
   6.31104000  0.75795700  1.02969000
   3.89847997  8.31844957  1.00420000
   8.51533000  2.42420000  1.03513000
   1.90460997  8.23864457  6.75799000
   7.01422000  2.37981000  6.73737000
   9.42624000  0.87249200  6.59920000
   2.04394997  8.25670957 10.07000000
   7.12235000  2.45686000 10.16990000
  -0.48869005  0.92431300 10.15700000
   6.22635000  0.81326500  4.64624000
   3.73905997  8.37344657  4.55756000
   8.41040000  2.48403000  4.64671000
   3.85804000  5.25708000  1.04890000
   6.29755000  3.93254000  1.09990000
  -3.81511005  6.78415000  0.97760000
   4.39522000  3.98953000  6.57959000
   4.48935000  6.73161000  6.52889000
   6.76063000  5.19934000  6.72421000
   4.51863000  3.97677000 10.20130000
   4.82965000  6.79539000 10.14490000
   7.00404000  5.17565000 10.24620000
   3.55770000  5.24666000  4.36484000
   6.18156000  3.90850000  4.47816000
   6.02113000  6.70544000  4.44013000
  -1.18060000  5.17351000  0.98297200
   1.32788000  3.94358000  1.06429000
   1.13158000  6.66656000  0.94818000
  -0.69824200  3.95386000  6.74234000
  -0.56855400  6.70056000  6.67386000
   1.80867000  5.29129000  6.55840000
  -0.50931200  3.92650000 10.19290000
  -0.32033800  6.69046000 10.09900000
   2.04687000  5.17354000 10.11220000
  -1.49661000  5.19943000  4.64330000
   1.05055000  3.97789000  4.51727000
   0.94199500  6.74699000  4.64442000
 


--------------------------------------------------------------------------------------------------------


 k-point  1 :   0.0000 0.0000 0.0000  plane waves:   17725
 k-point  2 :   0.5000-0.0000-0.0000  plane waves:   17736
 k-point  3 :   0.0000 0.5000 0.0000  plane waves:   17736
 k-point  4 :   0.5000 0.5000-0.0000  plane waves:   17736
 k-point  5 :   0.0000 0.0000 0.5000  plane waves:   17676
 k-point  6 :   0.5000-0.0000 0.5000  plane waves:   17700
 k-point  7 :   0.0000 0.5000 0.5000  plane waves:   17700
 k-point  8 :   0.5000 0.5000 0.5000  plane waves:   17700

 maximum and minimum number of plane-waves per node :     17736    17676

 maximum number of plane-waves:     17736
 maximum index in each direction: 
   IXMAX=   16   IYMAX=   16   IZMAX=   18
   IXMIN=  -16   IYMIN=  -16   IZMIN=  -18


 serial   3D FFT for wavefunctions
 parallel 3D FFT for charge:
    minimum data exchange during FFTs selected (reduces bandwidth)


 total amount of memory used by VASP MPI-rank0    94425. kBytes
=======================================================================

   base      :      30000. kBytes
   nonlr-proj:      13666. kBytes
   fftplans  :       1275. kBytes
   grid      :      22786. kBytes
   one-center:       2737. kBytes
   wavefun   :      23961. kBytes
 
     INWAV:  cpu time    0.0000: real time    0.0001
 Broyden mixing: mesh for mixing (old mesh)
   NGX = 33   NGY = 33   NGZ = 37
  (NGX  =100   NGY  =100   NGZ  =112)
  gives a total of  40293 points

 initial charge density was supplied:
 charge density of overlapping atoms calculated
 number of electron     672.0000000 magnetization      48.0000000
 keeping initial charge density in first step


--------------------------------------------------------------------------------------------------------


 Maximum index for non-local projection operator         1549
 Maximum index for augmentation-charges          551 (set IRDMAX)


--------------------------------------------------------------------------------------------------------


 First call to EWALD:  gamma=   0.179
 Maximum number of real-space cells 3x 3x 2
 Maximum number of reciprocal cells 3x 3x 3

    FEWALD:  cpu time    0.0027: real time    0.0027


--------------------------------------- Iteration      1(   1)  ---------------------------------------


    POTLOK:  cpu time    0.1975: real time    0.1989
    SETDIJ:  cpu time    4.6613: real time    4.6629
    EDDIAG:  cpu time    4.4597: real time    4.8503
  RMM-DIIS:  cpu time    8.9966: real time    9.0480
    ORTHCH:  cpu time    1.1635: real time    1.2406
       DOS:  cpu time    0.0024: real time    0.0024
    --------------------------------------------
      LOOP:  cpu time   19.4809: real time   20.0031

 eigenvalue-minimisations  :  7680
 total energy-change (2. order) : 0.1492960E+04  (-0.3499892E+05)
 number of electron     672.0000000 magnetization      48.0000000
 augmentation part      672.0000000 magnetization      48.0000000

 Free energy of the ion-electron system (eV)
  ---------------------------------------------------
  alpha Z        PSCENC =      2652.81237852
  Ewald energy   TEWEN  =    -41817.15702947
  -Hartree energ DENC   =    -25794.21487459
  -exchange      EXHF   =         0.00000000
  -V(xc)+E(xc)   XCENC  =      3606.02238672
  PAW double counting   =     55594.23204139   -59034.67079123
  entropy T*S    EENTRO =        -0.05957941
  eigenvalues    EBANDS =     -7576.20234869
  atomic energy  EATOM  =     73862.19814772
  Solvation  Ediel_sol  =         0.00000000
  ---------------------------------------------------
  free energy    TOTEN  =      1492.96033095 eV

  energy without entropy =     1493.01991036  energy(sigma->0) =     1492.99012066


--------------------------------------------------------------------------------------------------------




--------------------------------------- Iteration      1(   2)  ---------------------------------------


    EDDIAG:  cpu time    4.4060: real time    4.8051
  RMM-DIIS:  cpu time    9.0181: real time    9.0327
    ORTHCH:  cpu time    1.1604: real time    1.2392
       DOS:  cpu time    0.0021: real time    0.0021
    --------------------------------------------
      LOOP:  cpu time   14.5867: real time   15.0791

 eigenvalue-minimisations  :  7680
 total energy-change (2. order) :-0.2207692E+04  (-0.8001260E+04)
 number of electron     672.0000000 magnetization      48.0000000
 augmentation part      672.0000000 magnetization      48.0000000

 Free energy of the ion-electron system (eV)
  ---------------------------------------------------
  alpha Z        PSCENC =      2652.81237852
  Ewald energy   TEWEN  =    -41817.15702947
  -Hartree energ DENC   =    -25794.21487459
  -exchange      EXHF   =         0.00000000
  -V(xc)+E(xc)   XCENC  =      3606.02238672
  PAW double counting   =     55594.23204139   -59034.67079123
  entropy T*S    EENTRO =        -0.04546597
  eigenvalues    EBANDS =     -9783.90829969
  atomic energy  EATOM  =     73862.19814772
  Solvation  Ediel_sol  =         0.00000000
  ---------------------------------------------------
  free energy    TOTEN  =      -714.73150660 eV

  energy without entropy =     -714.68604063  energy(sigma->0) =     -714.70877361


--------------------------------------------------------------------------------------------------------




--------------------------------------- Iteration      1(   3)  ---------------------------------------


    EDDIAG:  cpu time    4.4961: real time    4.8971
  RMM-DIIS:  cpu time    8.9807: real time    9.0567
    ORTHCH:  cpu time    1.1603: real time    1.2433
       DOS:  cpu time    0.0024: real time    0.0024
    --------------------------------------------
      LOOP:  cpu time   14.6396: real time   15.1995

 eigenvalue-minimisations  :  7680
 total energy-change (2. order) : 0.6930009E+02  (-0.1417928E+04)
 number of electron     672.0000000 magnetization      48.0000000
 augmentation part      672.0000000 magnetization      48.0000000

 Free energy of the ion-electron system (eV)
  ---------------------------------------------------
  alpha Z        PSCENC =      2652.81237852
  Ewald energy   TEWEN  =    -41817.15702947
  -Hartree energ DENC   =    -25794.21487459
  -exchange      EXHF   =         0.00000000
  -V(xc)+E(xc)   XCENC  =      3606.02238672
  PAW double counting   =     55594.23204139   -59034.67079123
  entropy T*S    EENTRO =        -0.03228183
  eigenvalues    EBANDS =     -9714.62139826
  atomic energy  EATOM  =     73862.19814772
  Solvation  Ediel_sol  =         0.00000000
  ---------------------------------------------------
  free energy    TOTEN  =      -645.43142103 eV

  energy without entropy =     -645.39913920  energy(sigma->0) =     -645.41528012


--------------------------------------------------------------------------------------------------------




--------------------------------------- Iteration      1(   4)  ---------------------------------------


    EDDIAG:  cpu time    4.4228: real time    4.8110
  RMM-DIIS:  cpu time    9.0300: real time    9.0441
    ORTHCH:  cpu time    1.1749: real time    1.2524
       DOS:  cpu time    0.0016: real time    0.0016
    --------------------------------------------
      LOOP:  cpu time   14.6293: real time   15.1090

 eigenvalue-minimisations  :  7680
 total energy-change (2. order) :-0.4659457E+03  (-0.4280170E+03)
 number of electron     672.0000000 magnetization      48.0000000
 augmentation part      672.0000000 magnetization      48.0000000

 Free energy of the ion-electron system (eV)
  ---------------------------------------------------
  alpha Z        PSCENC =      2652.81237852
  Ewald energy   TEWEN  =    -41817.15702947
  -Hartree energ DENC   =    -25794.21487459
  -exchange      EXHF   =         0.00000000
  -V(xc)+E(xc)   XCENC  =      3606.02238672
  PAW double counting   =     55594.23204139   -59034.67079123
  entropy T*S    EENTRO =        -0.00000000
  eigenvalues    EBANDS =    -10180.59942838
  atomic energy  EATOM  =     73862.19814772
  Solvation  Ediel_sol  =         0.00000000
  ---------------------------------------------------
  free energy    TOTEN  =     -1111.37716932 eV

  energy without entropy =    -1111.37716932  energy(sigma->0) =    -1111.37716932


--------------------------------------------------------------------------------------------------------




--------------------------------------- Iteration      1(   5)  ---------------------------------------


    EDDIAG:  cpu time    4.5341: real time    4.9319
  RMM-DIIS:  cpu time    8.9747: real time    9.0275
    ORTHCH:  cpu time    1.1600: real time    1.2410
       DOS:  cpu time    0.0016: real time    0.0016
    --------------------------------------------
      LOOP:  cpu time   14.6704: real time   15.2019

 eigenvalue-minimisations  :  7680
 total energy-change (2. order) :-0.1044636E+03  (-0.1593127E+03)
 number of electron     672.0000000 magnetization      48.0000000
 augmentation part      672.0000000 magnetization      48.0000000

 Free energy of the ion-electron system (eV)
  ---------------------------------------------------
  alpha Z        PSCENC =      2652.81237852
  Ewald energy   TEWEN  =    -41817.15702947
  -Hartree energ DENC   =    -25794.21487459
  -exchange      EXHF   =         0.00000000
  -V(xc)+E(xc)   XCENC  =      3606.02238672
  PAW double counting   =     55594.23204139   -59034.67079123
  entropy T*S    EENTRO =        -0.00000000
  eigenvalues    EBANDS =    -10285.06298374
  atomic energy  EATOM  =     73862.19814772
  Solvation  Ediel_sol  =         0.00000000
  ---------------------------------------------------
  free energy    TOTEN  =     -1215.84072468 eV

  energy without entropy =    -1215.84072468  energy(sigma->0) =    -1215.84072468


--------------------------------------------------------------------------------------------------------




--------------------------------------- Iteration      1(   6)  ---------------------------------------


    EDDIAG:  cpu time    4.4231: real time    4.8089
  RMM-DIIS:  cpu time    9.0276: real time    9.0412
    ORTHCH:  cpu time    1.1608: real time    1.2399
       DOS:  cpu time    0.0019: real time    0.0019
    --------------------------------------------
      LOOP:  cpu time   14.6135: real time   15.0918

 eigenvalue-minimisations  :  7680
 total energy-change (2. order) :-0.9169267E+01  (-0.7902607E+02)
 number of electron     672.0000000 magnetization      48.0000000
 augmentation part      672.0000000 magnetization      48.0000000

 Free energy of the ion-electron system (eV)
  ---------------------------------------------------
  alpha Z        PSCENC =      2652.81237852
  Ewald energy   TEWEN  =    -41817.15702947
  -Hartree energ DENC   =    -25794.21487459
  -exchange      EXHF   =         0.00000000
  -V(xc)+E(xc)   XCENC  =      3606.02238672
  PAW double counting   =     55594.23204139   -59034.67079123
  entropy T*S    EENTRO =        -0.00000000
  eigenvalues    EBANDS =    -10294.23225109
  atomic energy  EATOM  =     73862.19814772
  Solvation  Ediel_sol  =         0.00000000
  ---------------------------------------------------
  free energy    TOTEN  =     -1225.00999203 eV

  energy without entropy =    -1225.00999203  energy(sigma->0) =    -1225.00999203


--------------------------------------------------------------------------------------------------------




--------------------------------------- Iteration      1(   7)  ---------------------------------------


    EDDIAG:  cpu time    4.4329: real time    4.8264
  RMM-DIIS:  cpu time    8.9844: real time    9.0344
    ORTHCH:  cpu time    1.1719: real time    1.2470
       DOS:  cpu time    0.0012: real time    0.0012
    --------------------------------------------
      LOOP:  cpu time   14.5904: real time   15.1090

 eigenvalue-minimisations  :  7680
 total energy-change (2. order) :-0.1821797E+01  (-0.4821020E+02)
 number of electron     672.0000000 magnetization      48.0000000
 augmentation part      672.0000000 magnetization      48.0000000

 Free energy of the ion-electron system (eV)
  ---------------------------------------------------
  alpha Z        PSCENC =      2652.81237852
  Ewald energy   TEWEN  =    -41817.15702947
  -Hartree energ DENC   =    -25794.21487459
  -exchange      EXHF   =         0.00000000
  -V(xc)+E(xc)   XCENC  =      3606.02238672
  PAW double counting   =     55594.23204139   -59034.67079123
  entropy T*S    EENTRO =        -0.00000000
  eigenvalues    EBANDS =    -10296.05404789
  atomic energy  EATOM  =     73862.19814772
  Solvation  Ediel_sol  =         0.00000000
  ---------------------------------------------------
  free energy    TOTEN  =     -1226.83178883 eV

  energy without entropy =    -1226.83178883  energy(sigma->0) =    -1226.83178883


--------------------------------------------------------------------------------------------------------




--------------------------------------- Iteration      1(   8)  ---------------------------------------


    EDDIAG:  cpu time    4.4427: real time    4.8430
  RMM-DIIS:  cpu time    9.0207: real time    9.0464
    ORTHCH:  cpu time    1.1605: real time    1.2405
       DOS:  cpu time    0.0014: real time    0.0014
    --------------------------------------------
      LOOP:  cpu time   14.6253: real time   15.1313

 eigenvalue-minimisations  :  7680
 total energy-change (2. order) : 0.4929069E+01  (-0.3002846E+02)
 number of electron     672.0000000 magnetization      48.0000000
 augmentation part      672.0000000 magnetization      48.0000000

 Free energy of the ion-electron system (eV)
  ---------------------------------------------------
  alpha Z        PSCENC =      2652.81237852
  Ewald energy   TEWEN  =    -41817.15702947
  -Hartree energ DENC   =    -25794.21487459
  -exchange      EXHF   =         0.00000000
  -V(xc)+E(xc)   XCENC  =      3606.02238672
  PAW double counting   =     55594.23204139   -59034.67079123
  entropy T*S    EENTRO =        -0.00000000
  eigenvalues    EBANDS =    -10291.12497849
  atomic energy  EATOM  =     73862.19814772
  Solvation  Ediel_sol  =         0.00000000
  ---------------------------------------------------
  free energy    TOTEN  =     -1221.90271943 eV

  energy without entropy =    -1221.90271943  energy(sigma->0) =    -1221.90271943


--------------------------------------------------------------------------------------------------------




--------------------------------------- Iteration      1(   9)  ---------------------------------------


    EDDIAG:  cpu time    4.4665: real time    4.8664
  RMM-DIIS:  cpu time   18.9061: real time   18.9589
    ORTHCH:  cpu time    1.1591: real time    1.2384
       DOS:  cpu time    0.0012: real time    0.0012
    --------------------------------------------
      LOOP:  cpu time   24.5329: real time   25.0648

 eigenvalue-minimisations  : 21796
 total energy-change (2. order) : 0.9313508E+01  (-0.1327596E+02)
 number of electron     672.0000000 magnetization      48.0000000
 augmentation part      672.0000000 magnetization      48.0000000

 Free energy of the ion-electron system (eV)
  ---------------------------------------------------
  alpha Z        PSCENC =      2652.81237852
  Ewald energy   TEWEN  =    -41817.15702947
  -Hartree energ DENC   =    -25794.21487459
  -exchange      EXHF   =         0.00000000
  -V(xc)+E(xc)   XCENC  =      3606.02238672
  PAW double counting   =     55594.23204139   -59034.67079123
  entropy T*S    EENTRO =        -0.00000000
  eigenvalues    EBANDS =    -10281.81147016
  atomic energy  EATOM  =     73862.19814772
  Solvation  Ediel_sol  =         0.00000000
  ---------------------------------------------------
  free energy    TOTEN  =     -1212.58921110 eV

  energy without entropy =    -1212.58921110  energy(sigma->0) =    -1212.58921110


--------------------------------------------------------------------------------------------------------




--------------------------------------- Iteration      1(  10)  ---------------------------------------


    EDDIAG:  cpu time    4.3848: real time    4.7934
  RMM-DIIS:  cpu time   17.8181: real time   17.8860
    ORTHCH:  cpu time    1.1885: real time    1.2645
       DOS:  cpu time    0.0014: real time    0.0014
    --------------------------------------------
      LOOP:  cpu time   23.3928: real time   23.9453

 eigenvalue-minimisations  : 19803
 total energy-change (2. order) :-0.1884117E+01  (-0.5259879E+00)
 number of electron     672.0000000 magnetization      48.0000000
 augmentation part      672.0000000 magnetization      48.0000000

 Free energy of the ion-electron system (eV)
  ---------------------------------------------------
  alpha Z        PSCENC =      2652.81237852
  Ewald energy   TEWEN  =    -41817.15702947
  -Hartree energ DENC   =    -25794.21487459
  -exchange      EXHF   =         0.00000000
  -V(xc)+E(xc)   XCENC  =      3606.02238672
  PAW double counting   =     55594.23204139   -59034.67079123
  entropy T*S    EENTRO =        -0.00000000
  eigenvalues    EBANDS =    -10283.69558684
  atomic energy  EATOM  =     73862.19814772
  Solvation  Ediel_sol  =         0.00000000
  ---------------------------------------------------
  free energy    TOTEN  =     -1214.47332778 eV

  energy without entropy =    -1214.47332778  energy(sigma->0) =    -1214.47332778


--------------------------------------------------------------------------------------------------------




--------------------------------------- Iteration      1(  11)  ---------------------------------------


    EDDIAG:  cpu time    4.3857: real time    4.7929
  RMM-DIIS:  cpu time   19.7713: real time   19.8338
    ORTHCH:  cpu time    1.1640: real time    1.2414
       DOS:  cpu time    0.0014: real time    0.0014
    --------------------------------------------
      LOOP:  cpu time   25.3224: real time   25.8695

 eigenvalue-minimisations  : 22624
 total energy-change (2. order) : 0.6913848E-01  (-0.4318830E-01)
 number of electron     672.0000000 magnetization      48.0000000
 augmentation part      672.0000000 magnetization      48.0000000

 Free energy of the ion-electron system (eV)
  ---------------------------------------------------
  alpha Z        PSCENC =      2652.81237852
  Ewald energy   TEWEN  =    -41817.15702947
  -Hartree energ DENC   =    -25794.21487459
  -exchange      EXHF   =         0.00000000
  -V(xc)+E(xc)   XCENC  =      3606.02238672
  PAW double counting   =     55594.23204139   -59034.67079123
  entropy T*S    EENTRO =        -0.00000000
  eigenvalues    EBANDS =    -10283.62644836
  atomic energy  EATOM  =     73862.19814772
  Solvation  Ediel_sol  =         0.00000000
  ---------------------------------------------------
  free energy    TOTEN  =     -1214.40418931 eV

  energy without entropy =    -1214.40418930  energy(sigma->0) =    -1214.40418930


--------------------------------------------------------------------------------------------------------




--------------------------------------- Iteration      1(  12)  ---------------------------------------


    EDDIAG:  cpu time    4.4372: real time    4.8504
  RMM-DIIS:  cpu time   21.5426: real time   21.5991
    ORTHCH:  cpu time    1.1578: real time    1.2381
       DOS:  cpu time    0.0013: real time    0.0013
    CHARGE:  cpu time    1.7800: real time    1.7810
    MIXING:  cpu time    0.0010: real time    0.0011
    --------------------------------------------
      LOOP:  cpu time   28.9199: real time   29.4710

 eigenvalue-minimisations  : 24375
 total energy-change (2. order) :-0.7619183E-03  (-0.4263438E-02)
 number of electron     672.0000458 magnetization      47.9999998
 augmentation part      239.0679264 magnetization      29.0358070

 Broyden mixing:
  rms(total) = 0.12558E+02    rms(broyden)= 0.12549E+02
  rms(prec ) = 0.14410E+02
  weight for this iteration     100.00

 Free energy of the ion-electron system (eV)
  ---------------------------------------------------
  alpha Z        PSCENC =      2652.81237852
  Ewald energy   TEWEN  =    -41817.15702947
  -Hartree energ DENC   =    -25794.21487459
  -exchange      EXHF   =         0.00000000
  -V(xc)+E(xc)   XCENC  =      3606.02238672
  PAW double counting   =     55594.23204139   -59034.67079123
  entropy T*S    EENTRO =        -0.00000000
  eigenvalues    EBANDS =    -10283.62721028
  atomic energy  EATOM  =     73862.19814772
  Solvation  Ediel_sol  =         0.00000000
  ---------------------------------------------------
  free energy    TOTEN  =     -1214.40495122 eV

  energy without entropy =    -1214.40495122  energy(sigma->0) =    -1214.40495122


--------------------------------------------------------------------------------------------------------




--------------------------------------- Iteration      1(  13)  ---------------------------------------


    POTLOK:  cpu time    0.1721: real time    0.1723
    SETDIJ:  cpu time    4.9981: real time    4.9991
    EDDIAG:  cpu time    4.3750: real time    4.7735
  RMM-DIIS:  cpu time   17.4230: real time   17.4433
    ORTHCH:  cpu time    1.1774: real time    1.2538
       DOS:  cpu time    0.0015: real time    0.0015
    CHARGE:  cpu time    1.7762: real time    1.7771
    MIXING:  cpu time    0.0008: real time    0.0010
    --------------------------------------------
      LOOP:  cpu time   29.9240: real time   30.4216

 eigenvalue-minimisations  : 18767
 total energy-change (2. order) : 0.2276120E+03  (-0.1223245E+03)
 number of electron     672.0000538 magnetization      47.9999994
 augmentation part      269.2852998 magnetization      26.1736651

 Broyden mixing:
  rms(total) = 0.14055E+02    rms(broyden)= 0.14052E+02
  rms(prec ) = 0.15850E+02
  weight for this iteration     100.00

 eigenvalues of (default mixing * dielectric matrix)
  average eigenvalue GAMMA=   0.3175
  0.3175

 Free energy of the ion-electron system (eV)
  ---------------------------------------------------
  alpha Z        PSCENC =      2652.81237852
  Ewald energy   TEWEN  =    -41817.15702947
  -Hartree energ DENC   =    -25123.21679261
  -exchange      EXHF   =         0.00000000
  -V(xc)+E(xc)   XCENC  =      3696.21097380
  PAW double counting   =     59892.33191501   -63317.39019233
  entropy T*S    EENTRO =        -0.08000285
  eigenvalues    EBANDS =    -10832.50236471
  atomic energy  EATOM  =     73862.19814772
  Solvation  Ediel_sol  =         0.00000000
  ---------------------------------------------------
  free energy    TOTEN  =      -986.79296692 eV

  energy without entropy =     -986.71296407  energy(sigma->0) =     -986.75296549


--------------------------------------------------------------------------------------------------------




--------------------------------------- Iteration      1(  14)  ---------------------------------------


    POTLOK:  cpu time    0.1812: real time    0.1813
    SETDIJ:  cpu time    4.9864: real time    4.9877
    EDDIAG:  cpu time    4.3969: real time    4.7820
  RMM-DIIS:  cpu time   17.7815: real time   17.8117
    ORTHCH:  cpu time    1.1605: real time    1.2383
       DOS:  cpu time    0.0017: real time    0.0017
    CHARGE:  cpu time    1.7775: real time    1.7795
    MIXING:  cpu time    0.0009: real time    0.0009
    --------------------------------------------
      LOOP:  cpu time   30.2866: real time   30.7831

 eigenvalue-minimisations  : 19391
 total energy-change (2. order) : 0.7030359E+02  (-0.1813474E+02)
 number of electron     672.0000491 magnetization      47.9999991
 augmentation part      246.4966643 magnetization      32.1300305

 Broyden mixing:
  rms(total) = 0.52875E+01    rms(broyden)= 0.52830E+01
  rms(prec ) = 0.57353E+01
  weight for this iteration     100.00

 eigenvalues of (default mixing * dielectric matrix)
  average eigenvalue GAMMA=   0.7297
  1.1037  0.3557

 Free energy of the ion-electron system (eV)
  ---------------------------------------------------
  alpha Z        PSCENC =      2652.81237852
  Ewald energy   TEWEN  =    -41817.15702947
  -Hartree energ DENC   =    -25739.18993787
  -exchange      EXHF   =         0.00000000
  -V(xc)+E(xc)   XCENC  =      3673.21157455
  PAW double counting   =     63283.84497039   -66766.07988989
  entropy T*S    EENTRO =        -0.00000000
  eigenvalues    EBANDS =    -10066.12959516
  atomic energy  EATOM  =     73862.19814772
  Solvation  Ediel_sol  =         0.00000000
  ---------------------------------------------------
  free energy    TOTEN  =      -916.48938120 eV

  energy without entropy =     -916.48938120  energy(sigma->0) =     -916.48938120


--------------------------------------------------------------------------------------------------------




--------------------------------------- Iteration      1(  15)  ---------------------------------------


    POTLOK:  cpu time    0.1736: real time    0.1741
    SETDIJ:  cpu time    4.9953: real time    4.9974
    EDDIAG:  cpu time    4.3877: real time    4.7756
  RMM-DIIS:  cpu time   17.9914: real time   18.0299
    ORTHCH:  cpu time    1.1596: real time    1.2386
       DOS:  cpu time    0.0011: real time    0.0011
    CHARGE:  cpu time    1.7825: real time    1.7837
    MIXING:  cpu time    0.0011: real time    0.0010
    --------------------------------------------
      LOOP:  cpu time   30.4923: real time   31.0016

 eigenvalue-minimisations  : 20238
 total energy-change (2. order) : 0.1476556E+02  (-0.2145479E+01)
 number of electron     672.0000503 magnetization      47.9999990
 augmentation part      249.6642937 magnetization      33.8114094

 Broyden mixing:
  rms(total) = 0.22002E+01    rms(broyden)= 0.21998E+01
  rms(prec ) = 0.22851E+01
  weight for this iteration     100.00

 eigenvalues of (default mixing * dielectric matrix)
  average eigenvalue GAMMA=   0.9313
  1.6721  0.3806  0.7412

 Free energy of the ion-electron system (eV)
  ---------------------------------------------------
  alpha Z        PSCENC =      2652.81237852
  Ewald energy   TEWEN  =    -41817.15702947
  -Hartree energ DENC   =    -25657.41468810
  -exchange      EXHF   =         0.00000000
  -V(xc)+E(xc)   XCENC  =      3706.76762160
  PAW double counting   =     67380.13344333   -70902.63469268
  entropy T*S    EENTRO =        -0.00000000
  eigenvalues    EBANDS =    -10126.42900650
  atomic energy  EATOM  =     73862.19814772
  Solvation  Ediel_sol  =         0.00000000
  ---------------------------------------------------
  free energy    TOTEN  =      -901.72382558 eV

  energy without entropy =     -901.72382558  energy(sigma->0) =     -901.72382558


--------------------------------------------------------------------------------------------------------




--------------------------------------- Iteration      1(  16)  ---------------------------------------


    POTLOK:  cpu time    0.1754: real time    0.1760
    SETDIJ:  cpu time    5.0555: real time    5.0562
    EDDIAG:  cpu time    4.4633: real time    4.8525
  RMM-DIIS:  cpu time   17.6425: real time   17.7015
    ORTHCH:  cpu time    1.1639: real time    1.2421
       DOS:  cpu time    0.0012: real time    0.0012
    CHARGE:  cpu time    1.7755: real time    1.7785
    MIXING:  cpu time    0.0015: real time    0.0015
    --------------------------------------------
      LOOP:  cpu time   30.2787: real time   30.8094

 eigenvalue-minimisations  : 19137
 total energy-change (2. order) :-0.1511343E+01  (-0.6641531E+00)
 number of electron     672.0000502 magnetization      47.9999990
 augmentation part      251.1290470 magnetization      33.9050015

 Broyden mixing:
  rms(total) = 0.14710E+01    rms(broyden)= 0.14705E+01
  rms(prec ) = 0.15571E+01
  weight for this iteration     100.00

 eigenvalues of (default mixing * dielectric matrix)
  average eigenvalue GAMMA=   0.9696
  2.0738  0.9004  0.3866  0.5177

 Free energy of the ion-electron system (eV)
  ---------------------------------------------------
  alpha Z        PSCENC =      2652.81237852
  Ewald energy   TEWEN  =    -41817.15702947
  -Hartree energ DENC   =    -25607.24893196
  -exchange      EXHF   =         0.00000000
  -V(xc)+E(xc)   XCENC  =      3707.61178537
  PAW double counting   =     70232.25404113   -73783.63359405
  entropy T*S    EENTRO =        -0.00000000
  eigenvalues    EBANDS =    -10150.07196557
  atomic energy  EATOM  =     73862.19814772
  Solvation  Ediel_sol  =         0.00000000
  ---------------------------------------------------
  free energy    TOTEN  =      -903.23516830 eV

  energy without entropy =     -903.23516830  energy(sigma->0) =     -903.23516830


--------------------------------------------------------------------------------------------------------




--------------------------------------- Iteration      1(  17)  ---------------------------------------


    POTLOK:  cpu time    0.1734: real time    0.1739
    SETDIJ:  cpu time    5.0592: real time    5.0614
    EDDIAG:  cpu time    4.3837: real time    4.7778
  RMM-DIIS:  cpu time   18.3624: real time   18.4971
    ORTHCH:  cpu time    1.1662: real time    1.2494
       DOS:  cpu time    0.0014: real time    0.0014
    CHARGE:  cpu time    1.7829: real time    1.7845
    MIXING:  cpu time    0.0021: real time    0.0021
    --------------------------------------------
      LOOP:  cpu time   30.9314: real time   31.5476

 eigenvalue-minimisations  : 20419
 total energy-change (2. order) : 0.1060374E+00  (-0.7411040E-01)
 number of electron     672.0000505 magnetization      47.9999990
 augmentation part      251.1276299 magnetization      33.9064881

 Broyden mixing:
  rms(total) = 0.79368E+00    rms(broyden)= 0.79352E+00
  rms(prec ) = 0.89692E+00
  weight for this iteration     100.00

 eigenvalues of (default mixing * dielectric matrix)
  average eigenvalue GAMMA=   0.9915
  2.2213  1.1200  0.3768  0.6847  0.5545

 Free energy of the ion-electron system (eV)
  ---------------------------------------------------
  alpha Z        PSCENC =      2652.81237852
  Ewald energy   TEWEN  =    -41817.15702947
  -Hartree energ DENC   =    -25596.69222298
  -exchange      EXHF   =         0.00000000
  -V(xc)+E(xc)   XCENC  =      3704.97838965
  PAW double counting   =     71155.46163920   -74715.87655041
  entropy T*S    EENTRO =        -0.00000000
  eigenvalues    EBANDS =    -10148.85388316
  atomic energy  EATOM  =     73862.19814772
  Solvation  Ediel_sol  =         0.00000000
  ---------------------------------------------------
  free energy    TOTEN  =      -903.12913092 eV

  energy without entropy =     -903.12913092  energy(sigma->0) =     -903.12913092


--------------------------------------------------------------------------------------------------------




--------------------------------------- Iteration      1(  18)  ---------------------------------------


    POTLOK:  cpu time    0.1727: real time    0.1735
    SETDIJ:  cpu time    5.5990: real time    5.6010
    EDDIAG:  cpu time    4.3932: real time    4.7772
  RMM-DIIS:  cpu time   17.6547: real time   17.8164
    ORTHCH:  cpu time    1.1958: real time    1.2713
       DOS:  cpu time    0.0013: real time    0.0013
    CHARGE:  cpu time    1.7761: real time    1.7777
    MIXING:  cpu time    0.0010: real time    0.0010
    --------------------------------------------
      LOOP:  cpu time   30.7939: real time   31.4194

 eigenvalue-minimisations  : 19152
 total energy-change (2. order) : 0.4240262E+00  (-0.7037327E-01)
 number of electron     672.0000502 magnetization      47.9999990
 augmentation part      250.6213697 magnetization      33.8748796

 Broyden mixing:
  rms(total) = 0.29762E+00    rms(broyden)= 0.29736E+00
  rms(prec ) = 0.31447E+00
  weight for this iteration     100.00

 eigenvalues of (default mixing * dielectric matrix)
  average eigenvalue GAMMA=   1.0169
  2.4503  1.3702  0.8472  0.5908  0.3785  0.4642

 Free energy of the ion-electron system (eV)
  ---------------------------------------------------
[...]
   4      -0.885    -0.538     1.423     0.026     0.041    -0.057
   5      -0.807    -0.996     1.803    -0.168    -0.006    -0.001
   6      -0.796    -1.059     1.855     0.056    -0.019    -0.005
   7      -0.726    -0.846     1.572    -0.251    -0.024     0.087
   8      -0.800    -1.043     1.842    -0.080    -0.067     0.073
   9      -0.838    -0.514     1.352     0.044     0.032    -0.021
  10      -0.679    -0.717     1.396     0.175    -0.017     0.082
  11      -1.130    -0.605     1.735     0.036     0.059    -0.016
  12      -0.820    -0.996     1.816     0.059    -0.045     0.022
  13      -0.624    -0.734     1.358     0.175     0.008    -0.019
  14      -0.883    -0.915     1.798    -0.181    -0.064    -0.031
  15      -0.889    -0.910     1.799    -0.069    -0.070    -0.019
  16      -0.707    -0.944     1.651    -0.278     0.052    -0.036
  17       1.524     1.397    -2.921     0.071    -0.138     0.097
  18       1.371     1.497    -2.868    -0.074     0.170    -0.100
  19       1.449     1.423    -2.872     0.033     0.187    -0.007
  20       1.503     1.348    -2.851     0.021    -0.176     0.008
  21       1.486     1.624    -3.110    -0.238    -0.068    -0.055
  22       1.373     1.639    -3.013    -0.067     0.152     0.010
  23       1.527     1.342    -2.869     0.012     0.137    -0.140
  24       1.631     1.302    -2.933    -0.042    -0.145     0.168
  25      -0.683     0.740    -0.057     1.227     0.650    -1.127
  26      -0.261     0.013     0.248    -0.176     0.571     0.382
  27      -2.328     1.511     0.817    -0.278     1.689     0.425
  28       0.272    -1.219     0.947     0.732    -0.806     0.387
  29       0.356    -0.737     0.380     0.603    -0.182    -0.949
  30      -0.253    -0.105     0.358     0.272     0.420    -0.334
  31      -0.876    -0.411     1.286     0.230    -0.865    -0.065
  32      -0.431     0.576    -0.146    -1.307    -0.683    -1.123
  33      -0.255     0.668    -0.413    -0.084     0.115    -0.376
  34      -0.650     0.082     0.567    -1.224     1.059     0.872
  35       0.058     0.030    -0.089     0.212     0.615     1.199
  36       1.754    -0.005    -1.749     0.586    -0.063     1.424
  37      -0.196    -0.697     0.893    -0.471    -0.112     0.192
  38      -0.314     0.180     0.134    -1.710    -0.557     0.299
  39       1.548    -0.810    -0.738     0.357    -0.144     0.136
  40      -2.085     0.498     1.587    -0.907     1.313    -0.642
  41      -4.574     3.680     0.894    -4.587     2.014    -3.372
  42      -2.084     1.391     0.693     5.822     3.952     3.672
  43       2.807    -5.247     2.440     0.717    -4.667     1.311
  44      -3.642     2.088     1.554    -4.700    -1.542     5.723
  45       4.613    -5.260     0.647    -1.680     3.341    -0.608
  46      -0.634    -0.240     0.874     5.815    -4.215    -3.336
  47      -3.402     2.482     0.920    -4.717     1.845    -5.747
  48       6.178    -5.136    -1.042    -1.191    -4.286    -1.257
  49      -1.612     0.200     1.411     6.142     3.347     4.429
  50      -4.804     5.338    -0.534    -5.343    -0.885     4.395
  51      -1.805     1.521     0.284     6.543    -3.715    -3.092
  52       5.719    -5.676    -0.043    -0.030     4.453    -1.040
  53      -1.656     3.282    -1.626    -5.752     1.684    -3.573
  54      -3.638     4.358    -0.719     4.234     1.521     4.227
  55       6.530    -5.779    -0.750     0.000    -3.357    -0.901
  56      -3.068     1.445     1.623    -4.065    -2.225     3.697
  57       6.376    -6.754     0.379    -0.593     4.229    -1.847
  58      -2.395     1.748     0.647     5.719     0.141    -4.644
  59      -3.742     2.286     1.456    -5.439     2.482    -4.138
  60       5.302    -6.161     0.859     2.104    -4.577     0.387
  61      -5.368     4.132     1.236     4.000     2.718     3.435
  62      -2.072     3.891    -1.819    -6.550    -3.740     1.938
  63      -4.254     4.578    -0.325     4.360    -3.879    -3.710
  64       5.453    -5.210    -0.243    -2.333     4.928    -0.288
  65      -3.218     2.341     0.878    -4.595     3.683    -2.906
  66      -3.951     2.753     1.198     4.902     3.062     4.542
  67       3.363    -5.477     2.115    -0.257    -4.176     1.663
  68      -3.010     2.244     0.767    -4.113    -3.603     4.361
  69       4.416    -6.312     1.896     0.409     4.710    -1.885
  70      -2.001     1.890     0.111     5.996    -4.658    -2.235
  71      -2.097     2.710    -0.614    -5.926     2.450    -4.323
  72       7.029    -5.923    -1.105    -1.349    -3.148     0.509
  73      -3.163     2.493     0.670     5.025     1.203     3.692
  74      -2.256     2.926    -0.669    -4.957    -0.166     4.987
  75       0.669     0.939    -1.608     6.105    -2.149    -3.205
  76       5.174    -5.264     0.090    -1.006     4.916     0.702
  77      -4.021     2.510     1.512    -6.187     3.867    -4.440
  78      -2.981     2.904     0.077     5.179     2.430     1.854
  79       4.427    -5.268     0.841    -0.670    -5.397     0.398
  80      -4.103     2.709     1.394    -4.124    -1.144     4.445
  81       4.630    -6.955     2.324    -1.269     4.666    -0.110
  82      -4.080     2.653     1.427     4.002    -1.126    -4.562
  83      -2.678     1.950     0.728    -4.689     2.485    -4.576
  84       6.387    -6.892     0.505    -0.146    -4.175     0.215
  85      -1.899     1.378     0.522     4.221     2.145     4.115
  86      -4.047     3.899     0.148    -4.191    -2.844     4.146
  87      -4.814     3.448     1.366     3.051    -1.862    -4.365
  88       4.290    -4.748     0.458    -1.296     5.224    -2.000
 ---------------------------------------------------------------------


 Total hyperfine coupling parameters after diagonalization (MHz)
 (convention: |A_zz| > |A_xx| > |A_yy|)
 ----------------------------------------------------------------------
  ion      A_xx      A_yy      A_zz     asymmetry (A_yy - A_xx)/ A_zz 
 ----------------------------------------------------------------------
   1       2.601     2.302     4.642      -0.064
   2       2.054     1.589     4.337      -0.107
   3       1.540     1.169     3.390      -0.109
   4       1.922     1.572     3.886      -0.090
   5       0.852     0.466     3.364      -0.115
   6       0.785     0.500     3.425      -0.083
   7       1.779     1.264     3.884      -0.133
   8       0.852     0.563     3.477      -0.083
   9       2.049     1.713     3.910      -0.086
  10       1.691     1.338     3.613      -0.098
  11       2.443     1.913     4.783      -0.111
  12       1.054     0.842     3.674      -0.058
  13       2.539     2.171     4.393      -0.084
  14       0.310    -0.055     2.827      -0.129
  15      -0.239    -0.099     2.532       0.055
  16       2.346     1.743     4.524      -0.133
  17      13.994     9.696    14.182      -0.303
  18      12.429     8.212    12.626      -0.334
  19      13.961     9.677    14.035      -0.305
  20      13.890     9.686    14.057      -0.299
  21      16.145    11.724    16.638      -0.266
  22      14.991    10.611    15.284      -0.287
  23      13.798     9.574    13.983      -0.302
  24      13.472     9.226    13.813      -0.307
  25      95.351    92.976    96.788      -0.025
  26      97.656    96.769    98.268      -0.009
  27      97.396    93.019    97.950      -0.045
  28      97.439    95.535    98.716      -0.019
  29      99.623    98.034   100.623      -0.016
  30      98.748    97.919    99.270      -0.008
  31      98.215    97.363   100.188      -0.009
  32      98.346    95.841    99.625      -0.025
  33      95.972    95.659    97.013      -0.003
  34      95.439    92.228    95.711      -0.034
  35      96.401    95.217    97.943      -0.012
  36      94.524    91.351    95.901      -0.033
  37      95.635    94.606    96.536      -0.011
  38      96.055    94.275    97.961      -0.018
  39      95.896    95.564    98.141      -0.003
  40      96.657    93.781    98.872      -0.029
  41       8.005     2.600    17.151      -0.315
  42       4.174     0.053    15.767      -0.261
  43       7.241     2.925    16.042      -0.269
  44       5.115     0.908    16.739      -0.251
  45       4.876     0.572    12.883      -0.334
  46       5.227     1.428    16.712      -0.227
  47       4.679     1.302    16.969      -0.199
  48       5.023     1.115    15.361      -0.254
  49       4.763     0.255    16.557      -0.272
  50       6.991     2.032    18.839      -0.263
  51       5.430     0.413    16.637      -0.302
  52       4.198     0.501    14.592      -0.253
  53       2.612     0.063    14.199      -0.179
  54       4.411     1.825    15.705      -0.165
  55       5.435     1.350    15.167      -0.269
  56       6.820     3.084    15.729      -0.238
  57       8.663     2.907    18.813      -0.306
  58       7.100    -0.052    15.286      -0.468
  59       5.757     0.567    16.217      -0.320
  60       5.797     0.607    15.716      -0.330
  61       6.992     0.935    16.178      -0.374
  62       7.326     2.159    18.743      -0.276
  63       4.033    -0.966    15.078      -0.332
  64       4.202     1.147    15.629      -0.195
  65       6.829     1.839    15.979      -0.312
  66       3.817    -0.286    15.419      -0.266
  67       3.300    -1.361    11.608      -0.402
  68       5.279     2.588    16.715      -0.161
  69       6.594     0.793    15.813      -0.367
  70       5.301    -0.683    15.442      -0.388
  71       3.885     0.831    16.165      -0.189
  72       4.302     0.412    14.734      -0.264
  73       5.404     0.502    14.266      -0.344
  74       8.194     3.163    17.949      -0.280
  75       4.069     1.458    15.303      -0.171
  76       4.890     1.619    15.531      -0.211
  77       6.593     0.951    19.006      -0.297
  78       6.911     1.514    14.825      -0.364
  79       4.776     2.512    16.193      -0.140
  80       5.664     1.147    15.157      -0.298
  81       7.446     1.579    17.049      -0.344
  82       4.319    -0.009    13.937      -0.311
  83       4.754     1.911    15.922      -0.179
  84       7.444     2.203    17.658      -0.297
  85       3.404     1.003    13.268      -0.181
  86       4.371     0.817    15.497      -0.229
  87       3.024    -0.790    12.947      -0.295
  88       3.762     1.143    14.922      -0.175
 ---------------------------------------------------------------------



--------------------------------------------------------------------------------------------------------


 stress matrix after NEB project (eV)
    -42.09151      2.70144     -1.83963
      2.69870    -46.42764      2.53823
     -1.85266      2.52022    -61.52104
  FORCES: max atom, RMS     2.258101    1.106151
  FORCE total and by dimension   10.376615    2.005728
  Stress total and by dimension   88.012790   61.521039
     LOOP+:  cpu time  791.8603: real time  807.7967
    4ORBIT:  cpu time    0.0000: real time    0.0000
 


 total charge     
 
# of ion       s       p       d       tot
------------------------------------------
    1        0.052   5.995   0.000   6.047
    2        0.053   5.995   0.000   6.048
    3        0.047   5.990   0.000   6.038
    4        0.050   5.992   0.000   6.041
    5        0.048   5.992   0.000   6.040
    6        0.052   5.997   0.000   6.048
    7        0.049   5.991   0.000   6.041
    8        0.053   5.999   0.000   6.052
    9        0.050   5.992   0.000   6.041
   10        0.056   6.001   0.000   6.057
   11        0.054   5.996   0.000   6.050
   12        0.047   5.991   0.000   6.039
   13        0.049   5.991   0.000   6.040
   14        0.051   5.993   0.000   6.044
   15        0.049   5.992   0.000   6.041
   16        0.051   5.994   0.000   6.045
   17        0.147   6.125   0.082   6.354
   18        0.145   6.122   0.079   6.346
   19        0.143   6.118   0.076   6.337
   20        0.142   6.117   0.075   6.335
   21        0.153   6.136   0.090   6.379
   22        0.153   6.135   0.090   6.377
   23        0.144   6.119   0.077   6.339
   24        0.152   6.132   0.087   6.371
   25        0.387   6.483   4.855  11.725
   26        0.377   6.461   4.834  11.672
   27        0.375   6.451   4.830  11.656
   28        0.389   6.483   4.865  11.737
   29        0.361   6.426   4.798  11.586
   30        0.367   6.435   4.813  11.614
   31        0.376   6.455   4.837  11.668
   32        0.381   6.461   4.855  11.697
   33        0.370   6.442   4.819  11.631
   34        0.382   6.470   4.840  11.692
   35        0.362   6.426   4.803  11.590
   36        0.365   6.434   4.808  11.606
   37        0.392   6.490   4.865  11.747
   38        0.382   6.470   4.844  11.696
   39        0.379   6.463   4.837  11.679
   40        0.376   6.457   4.820  11.653
   41        1.599   3.526   0.000   5.125
   42        1.599   3.508   0.000   5.107
   43        1.599   3.512   0.000   5.111
   44        1.604   3.518   0.000   5.121
   45        1.597   3.529   0.000   5.125
   46        1.598   3.511   0.000   5.110
   47        1.604   3.500   0.000   5.104
   48        1.600   3.485   0.000   5.084
   49        1.599   3.489   0.000   5.088
   50        1.601   3.514   0.000   5.116
   51        1.602   3.545   0.000   5.147
   52        1.598   3.494   0.000   5.092
   53        1.598   3.481   0.000   5.078
   54        1.598   3.500   0.000   5.097
   55        1.599   3.519   0.000   5.118
   56        1.596   3.510   0.000   5.105
   57        1.601   3.517   0.000   5.118
   58        1.597   3.512   0.000   5.108
   59        1.596   3.479   0.000   5.075
   60        1.599   3.501   0.000   5.100
   61        1.597   3.513   0.000   5.110
   62        1.602   3.504   0.000   5.106
   63        1.598   3.494   0.000   5.092
   64        1.602   3.493   0.000   5.095
   65        1.596   3.519   0.000   5.115
   66        1.598   3.490   0.000   5.088
   67        1.599   3.542   0.000   5.141
   68        1.601   3.504   0.000   5.105
   69        1.598   3.512   0.000   5.110
   70        1.600   3.494   0.000   5.093
   71        1.600   3.480   0.000   5.080
   72        1.599   3.487   0.000   5.086
   73        1.598   3.526   0.000   5.125
   74        1.597   3.474   0.000   5.071
   75        1.599   3.462   0.000   5.062
   76        1.599   3.515   0.000   5.114
   77        1.603   3.505   0.000   5.108
   78        1.597   3.518   0.000   5.115
   79        1.600   3.531   0.000   5.130
   80        1.597   3.495   0.000   5.092
   81        1.601   3.518   0.000   5.119
   82        1.598   3.508   0.000   5.106
   83        1.599   3.516   0.000   5.114
   84        1.599   3.519   0.000   5.119
   85        1.596   3.486   0.000   5.082
   86        1.603   3.495   0.000   5.098
   87        1.597   3.488   0.000   5.085
   88        1.600   3.511   0.000   5.111
--------------------------------------------------
tot         84.768 416.456  77.978 579.202
 


 magnetization (x)
 
# of ion       s       p       d       tot
------------------------------------------
    1        0.002   0.000   0.000   0.003
    2        0.002   0.000   0.000   0.002
    3        0.001   0.000   0.000   0.001
    4        0.002  -0.000   0.000   0.002
    5        0.001   0.001   0.000   0.002
    6        0.001   0.001   0.000   0.002
    7        0.002   0.000   0.000   0.002
    8        0.001   0.001   0.000   0.002
    9        0.002   0.000   0.000   0.002
   10        0.001   0.000   0.000   0.002
   11        0.002   0.000   0.000   0.002
   12        0.001   0.001   0.000   0.002
   13        0.002   0.000   0.000   0.003
   14        0.001   0.000   0.000   0.001
   15        0.001   0.000   0.000   0.001
   16        0.002   0.000   0.000   0.002
   17        0.007   0.002   0.001   0.011
   18        0.006   0.001   0.001   0.009
   19        0.007   0.002   0.001   0.010
   20        0.007   0.002   0.001   0.010
   21        0.008   0.003   0.001   0.013
   22        0.007   0.003   0.001   0.011
   23        0.007   0.002   0.001   0.011
   24        0.007   0.002   0.001   0.010
   25        0.015   0.031   2.730   2.777
   26        0.016   0.030   2.757   2.803
   27        0.015   0.030   2.755   2.800
   28        0.015   0.032   2.729   2.776
   29        0.016   0.030   2.789   2.835
   30        0.016   0.031   2.780   2.826
   31        0.016   0.031   2.748   2.794
   32        0.015   0.030   2.729   2.775
   33        0.015   0.029   2.767   2.811
   34        0.015   0.031   2.736   2.781
   35        0.015   0.029   2.787   2.831
   36        0.014   0.028   2.774   2.816
   37        0.015   0.032   2.722   2.769
   38        0.015   0.030   2.742   2.787
   39        0.015   0.031   2.742   2.788
   40        0.016   0.030   2.761   2.807
   41        0.002   0.057   0.000   0.059
   42        0.002   0.026   0.000   0.028
   43        0.002   0.039   0.000   0.041
   44        0.002   0.030   0.000   0.032
   45        0.002   0.029   0.000   0.030
   46        0.002   0.039   0.000   0.041
   47        0.002   0.029   0.000   0.031
   48        0.002   0.030   0.000   0.032
   49        0.002   0.031   0.000   0.033
   50        0.002   0.051   0.000   0.053
   51        0.002   0.044   0.000   0.046
   52        0.002   0.017   0.000   0.019
   53        0.002   0.014   0.000   0.016
   54        0.002   0.032   0.000   0.034
   55        0.002   0.034   0.000   0.036
   56        0.002   0.037   0.000   0.039
   57        0.003   0.058   0.000   0.060
   58        0.002   0.034   0.000   0.036
   59        0.002   0.028   0.000   0.030
   60        0.002   0.026   0.000   0.028
   61        0.002   0.041   0.000   0.043
   62        0.002   0.047   0.000   0.050
   63        0.002   0.022   0.000   0.024
   64        0.002   0.028   0.000   0.030
   65        0.002   0.044   0.000   0.046
   66        0.002   0.024   0.000   0.026
   67        0.001   0.019   0.000   0.020
   68        0.002   0.036   0.000   0.039
   69        0.002   0.040   0.000   0.042
   70        0.002   0.030   0.000   0.032
   71        0.002   0.026   0.000   0.028
   72        0.002   0.027   0.000   0.029
   73        0.002   0.038   0.000   0.040
   74        0.002   0.045   0.000   0.048
   75        0.002   0.016   0.000   0.018
   76        0.002   0.028   0.000   0.030
   77        0.002   0.049   0.000   0.052
   78        0.002   0.036   0.000   0.038
   79        0.002   0.040   0.000   0.042
   80        0.002   0.035   0.000   0.037
   81        0.002   0.045   0.000   0.047
   82        0.002   0.023   0.000   0.025
   83        0.002   0.039   0.000   0.041
   84        0.002   0.045   0.000   0.047
   85        0.002   0.019   0.000   0.021
   86        0.002   0.023   0.000   0.025
   87        0.002   0.011   0.000   0.012
   88        0.002   0.027   0.000   0.029
--------------------------------------------------
tot          0.421   2.095  44.058  46.574
 

 total amount of memory used by VASP MPI-rank0    94425. kBytes
=======================================================================

   base      :      30000. kBytes
   nonlr-proj:      13666. kBytes
   fftplans  :       1275. kBytes
   grid      :      22786. kBytes
   one-center:       2737. kBytes
   wavefun   :      23961. kBytes
 
  
  
 General timing and accounting informations for this job:
 ========================================================
  
                  Total CPU time used (sec):      812.762
                            User time (sec):      804.158
                          System time (sec):        8.605
                         Elapsed time (sec):      831.193
  
                   Maximum memory used (kb):      193784.
                   Average memory used (kb):           0.
  
                          Minor page faults:       334837
                          Major page faults:            0
                 Voluntary context switches:       278715
