 vasp.5.4.4.18Apr17-6-g9f103f2a35 (build Dec 02 2020 12:53:39) complex          
  
 executed on             LinuxIFC date 2021.07.31  10:56:44
 running on   64 total cores
 distrk:  each k-point on   64 cores,    1 groups
 distr:  one band on NCORES_PER_BAND=   1 cores,   64 groups


--------------------------------------------------------------------------------------------------------


 INCAR:
 POTCAR:    PAW_PBE Na_pv 19Sep2006               
 POTCAR:    PAW_PBE Mg_pv 13Apr2007               
 POTCAR:    PAW_PBE Mn_pv 02Aug2007               
 POTCAR:    PAW_PBE O 08Apr2002                   

 ----------------------------------------------------------------------------- 
|                                                                             |
|           W    W    AA    RRRRR   N    N  II  N    N   GGGG   !!!           |
|           W    W   A  A   R    R  NN   N  II  NN   N  G    G  !!!           |
|           W    W  A    A  R    R  N N  N  II  N N  N  G       !!!           |
|           W WW W  AAAAAA  RRRRR   N  N N  II  N  N N  G  GGG   !            |
|           WW  WW  A    A  R   R   N   NN  II  N   NN  G    G                |
|           W    W  A    A  R    R  N    N  II  N    N   GGGG   !!!           |
|                                                                             |
|      For optimal performance we recommend to set                            |
|        NCORE= 4 - approx SQRT( number of cores)                             |
|      NCORE specifies how many cores store one orbital (NPAR=cpu/NCORE).     |
|      This setting can  greatly improve the performance of VASP for DFT.     |
|      The default,   NCORE=1            might be grossly inefficient         |
|      on modern multi-core architectures or massively parallel machines.     |
|      Do your own testing !!!!                                               |
|      Unfortunately you need to use the default for GW and RPA calculations. |
|      (for HF NCORE is supported but not extensively tested yet)             |
|                                                                             |
 ----------------------------------------------------------------------------- 

 POTCAR:    PAW_PBE Na_pv 19Sep2006               
   VRHFIN =Na: p6s1                                                             
   LEXCH  = PE                                                                  
   EATOM  =   766.0439 eV,   56.3026 Ry                                         
                                                                                
   TITEL  = PAW_PBE Na_pv 19Sep2006                                             
   LULTRA =        F    use ultrasoft PP ?                                      
   IUNSCR =        1    unscreen: 0-lin 1-nonlin 2-no                           
   RPACOR =    1.800    partial core radius                                     
   POMASS =   22.990; ZVAL   =    7.000    mass and valenz                      
   RCORE  =    2.200    outmost cutoff radius                                   
   RWIGS  =    2.200; RWIGS  =    1.164    wigner-seitz radius (au A)           
   ENMAX  =  259.561; ENMIN  =  194.671 eV                                      
   ICORE  =        2    local potential                                         
   LCOR   =        T    correct aug charges                                     
   LPAW   =        T    paw PP                                                  
   EAUG   =  368.056                                                            
   DEXC   =    0.000                                                            
   RMAX   =    2.245    core radius for proj-oper                               
   RAUG   =    1.300    factor for augmentation sphere                          
   RDEP   =    2.259    radius for radial grids                                 
   RDEPT  =    1.738    core radius for aug-charge                              
                                                                                
   Atomic configuration                                                         
    5 entries                                                                   
     n  l   j            E        occ.                                          
     1  0  0.50     -1033.6933   2.0000                                         
     2  0  0.50       -56.7526   2.0000                                         
     2  1  1.50       -28.6721   6.0000                                         
     3  0  0.50        -2.7440   1.0000                                         
     3  2  1.50        -1.3606   0.0000                                         
   Description                                                                  
     l       E           TYP  RCUT    TYP  RCUT                                 
     1    -28.6720912     23  2.000                                             
     1      6.8029130     23  2.000                                             
     0     -2.7439560     23  2.200                                             
     0     34.0145650     23  2.200                                             
     2     -1.3605826     23  2.200                                             
  local pseudopotential read in
  partial core-charges read in
  partial kinetic energy density read in
  atomic valenz-charges read in
  non local Contribution for L=           1  read in
    real space projection operators read in
  non local Contribution for L=           1  read in
    real space projection operators read in
  non local Contribution for L=           0  read in
    real space projection operators read in
  non local Contribution for L=           0  read in
    real space projection operators read in
    PAW grid and wavefunctions read in
 
   number of l-projection  operators is LMAX  =           4
   number of lm-projection operators is LMMAX =           8
 
 POTCAR:    PAW_PBE Mg_pv 13Apr2007               
   VRHFIN =Mg: p6s2                                                             
   LEXCH  = PE                                                                  
   EATOM  =  1056.7344 eV,   77.6678 Ry                                         
                                                                                
   TITEL  = PAW_PBE Mg_pv 13Apr2007                                             
   LULTRA =        F    use ultrasoft PP ?                                      
   IUNSCR =        1    unscreen: 0-lin 1-nonlin 2-no                           
   RPACOR =    1.500    partial core radius                                     
   POMASS =   24.305; ZVAL   =    8.000    mass and valenz                      
   RCORE  =    2.000    outmost cutoff radius                                   
   RWIGS  =    2.000; RWIGS  =    1.058    wigner-seitz radius (au A)           
   ENMAX  =  403.929; ENMIN  =  302.947 eV                                      
   RCLOC  =    1.506    cutoff for local pot                                    
   LCOR   =        T    correct aug charges                                     
   LPAW   =        T    paw PP                                                  
   EAUG   =  758.780                                                            
   DEXC   =    0.000                                                            
   RMAX   =    2.045    core radius for proj-oper                               
   RAUG   =    1.300    factor for augmentation sphere                          
   RDEP   =    2.025    radius for radial grids                                 
   RDEPT  =    1.557    core radius for aug-charge                              
                                                                                
   Atomic configuration                                                         
    5 entries                                                                   
     n  l   j            E        occ.                                          
     1  0  0.50     -1259.6230   2.0000                                         
     2  0  0.50       -79.8442   2.0000                                         
     2  1  1.50       -46.6121   6.0000                                         
     3  0  0.50        -4.7055   2.0000                                         
     3  2  1.50        -1.3606   0.0000                                         
   Description                                                                  
     l       E           TYP  RCUT    TYP  RCUT                                 
     1    -46.6121073     23  1.600                                             
     1      2.7211652     23  1.600                                             
     0     -4.7054661     23  2.000                                             
     0     61.2262170     23  2.000                                             
     2     -1.3605826     23  2.000                                             
  local pseudopotential read in
  partial core-charges read in
  partial kinetic energy density read in
  atomic valenz-charges read in
  non local Contribution for L=           1  read in
    real space projection operators read in
  non local Contribution for L=           1  read in
    real space projection operators read in
  non local Contribution for L=           0  read in
    real space projection operators read in
  non local Contribution for L=           0  read in
    real space projection operators read in
  non local Contribution for L=           2  read in
    real space projection operators read in
    PAW grid and wavefunctions read in
 
   number of l-projection  operators is LMAX  =           5
   number of lm-projection operators is LMMAX =          13
 
 POTCAR:    PAW_PBE Mn_pv 02Aug2007               
   VRHFIN =Mn: 3p4s3d                                                           
   LEXCH  = PE                                                                  
   EATOM  =  2025.2664 eV,  148.8529 Ry                                         
                                                                                
   TITEL  = PAW_PBE Mn_pv 02Aug2007                                             
   LULTRA =        F    use ultrasoft PP ?                                      
   IUNSCR =        1    unscreen: 0-lin 1-nonlin 2-no                           
   RPACOR =    2.080    partial core radius                                     
   POMASS =   54.938; ZVAL   =   13.000    mass and valenz                      
   RCORE  =    2.300    outmost cutoff radius                                   
   RWIGS  =    2.500; RWIGS  =    1.323    wigner-seitz radius (au A)           
   ENMAX  =  269.864; ENMIN  =  202.398 eV                                      
   ICORE  =        3    local potential                                         
   LCOR   =        T    correct aug charges                                     
   LPAW   =        T    paw PP                                                  
   EAUG   =  569.085                                                            
   DEXC   =    0.000                                                            
   RMAX   =    2.343    core radius for proj-oper                               
   RAUG   =    1.300    factor for augmentation sphere                          
   RDEP   =    2.338    radius for radial grids                                 
   RDEPT  =    1.798    core radius for aug-charge                              
                                                                                
   Atomic configuration                                                         
    8 entries                                                                   
     n  l   j            E        occ.                                          
     1  0  0.50     -6424.8287   2.0000                                         
     2  0  0.50      -739.1154   2.0000                                         
     2  1  1.50      -625.3949   6.0000                                         
     3  0  0.50       -81.6100   2.0000                                         
     3  1  1.50       -50.4667   6.0000                                         
     3  2  2.50        -3.3745   6.0000                                         
     4  0  0.50        -4.1331   1.0000                                         
     4  3  2.50        -1.3606   0.0000                                         
   Description                                                                  
     l       E           TYP  RCUT    TYP  RCUT                                 
     1    -50.4666628     23  2.000                                             
     1     -1.3605826     23  2.000                                             
     2     -3.3744729     23  2.300                                             
     2     -4.7350555     23  2.300                                             
     0     -4.1331431     23  2.300                                             
     0      7.6656591     23  2.300                                             
     3      9.5240782     23  2.300                                             
  local pseudopotential read in
  partial core-charges read in
  partial kinetic energy density read in
  atomic valenz-charges read in
  non local Contribution for L=           1  read in
    real space projection operators read in
  non local Contribution for L=           1  read in
    real space projection operators read in
  non local Contribution for L=           2  read in
    real space projection operators read in
  non local Contribution for L=           2  read in
    real space projection operators read in
  non local Contribution for L=           0  read in
    real space projection operators read in
  non local Contribution for L=           0  read in
    real space projection operators read in
    PAW grid and wavefunctions read in
 
   number of l-projection  operators is LMAX  =           6
   number of lm-projection operators is LMMAX =          18
 
 POTCAR:    PAW_PBE O 08Apr2002                   
   VRHFIN =O: s2p4                                                              
   LEXCH  = PE                                                                  
   EATOM  =   432.3788 eV,   31.7789 Ry                                         
                                                                                
   TITEL  = PAW_PBE O 08Apr2002                                                 
   LULTRA =        F    use ultrasoft PP ?                                      
   IUNSCR =        1    unscreen: 0-lin 1-nonlin 2-no                           
   RPACOR =    1.200    partial core radius                                     
   POMASS =   16.000; ZVAL   =    6.000    mass and valenz                      
   RCORE  =    1.520    outmost cutoff radius                                   
   RWIGS  =    1.550; RWIGS  =    0.820    wigner-seitz radius (au A)           
   ENMAX  =  400.000; ENMIN  =  300.000 eV                                      
   ICORE  =        2    local potential                                         
   LCOR   =        T    correct aug charges                                     
   LPAW   =        T    paw PP                                                  
   EAUG   =  605.392                                                            
   DEXC   =    0.000                                                            
   RMAX   =    1.553    core radius for proj-oper                               
   RAUG   =    1.300    factor for augmentation sphere                          
   RDEP   =    1.550    radius for radial grids                                 
   RDEPT  =    1.329    core radius for aug-charge                              
                                                                                
   Atomic configuration                                                         
    4 entries                                                                   
     n  l   j            E        occ.                                          
     1  0  0.50      -514.6923   2.0000                                         
     2  0  0.50       -23.9615   2.0000                                         
     2  1  0.50        -9.0305   4.0000                                         
     3  2  1.50        -9.5241   0.0000                                         
   Description                                                                  
     l       E           TYP  RCUT    TYP  RCUT                                 
     0    -23.9615318     23  1.200                                             
     0     -9.5240782     23  1.200                                             
     1     -9.0304911     23  1.520                                             
     1      8.1634956     23  1.520                                             
     2     -9.5240782      7  1.500                                             
  local pseudopotential read in
  partial core-charges read in
  partial kinetic energy density read in
  kinetic energy density of atom read in
  atomic valenz-charges read in
  non local Contribution for L=           0  read in
    real space projection operators read in
  non local Contribution for L=           0  read in
    real space projection operators read in
  non local Contribution for L=           1  read in
    real space projection operators read in
  non local Contribution for L=           1  read in
    real space projection operators read in
    PAW grid and wavefunctions read in
 
   number of l-projection  operators is LMAX  =           4
   number of lm-projection operators is LMMAX =           8
 
 Optimization of the real space projectors (new method)

 maximal supplied QI-value         = 17.01
 optimisation between [QCUT,QGAM] = [ 10.20, 20.41] = [ 29.16,116.64] Ry 
 Optimized for a Real-space Cutoff    1.30 Angstroem

   l    n(q)    QCUT    max X(q) W(low)/X(q) W(high)/X(q)  e(spline) 
   1      7    10.205     4.940    0.23E-03    0.84E-03    0.11E-06
   1      7    10.205     6.253    0.40E-03    0.13E-02    0.18E-06
   0      8    10.205    37.438    0.23E-03    0.37E-03    0.42E-07
   0      8    10.205     9.606    0.16E-03    0.26E-03    0.31E-07
 Optimization of the real space projectors (new method)

 maximal supplied QI-value         = 18.90
 optimisation between [QCUT,QGAM] = [ 10.20, 20.41] = [ 29.16,116.64] Ry 
 Optimized for a Real-space Cutoff    1.26 Angstroem

   l    n(q)    QCUT    max X(q) W(low)/X(q) W(high)/X(q)  e(spline) 
   1      7    10.205     2.974    0.63E-04    0.14E-03    0.13E-06
   1      7    10.205     4.279    0.11E-03    0.45E-03    0.24E-06
   0      8    10.205    16.381    0.44E-03    0.15E-03    0.55E-07
   0      8    10.205     5.611    0.31E-03    0.11E-03    0.40E-07
   2      7    10.205     4.652    0.50E-03    0.47E-03    0.57E-07
 Optimization of the real space projectors (new method)

 maximal supplied QI-value         = 16.25
 optimisation between [QCUT,QGAM] = [ 10.24, 20.48] = [ 29.35,117.42] Ry 
 Optimized for a Real-space Cutoff    1.34 Angstroem

   l    n(q)    QCUT    max X(q) W(low)/X(q) W(high)/X(q)  e(spline) 
   1      8    10.239     3.658    0.23E-03    0.30E-03    0.98E-07
   1      8    10.239     5.612    0.32E-03    0.65E-03    0.21E-06
   2      7    10.239    55.373    0.42E-03    0.45E-03    0.65E-07
   2      7    10.239    50.863    0.43E-03    0.48E-03    0.67E-07
   0      8    10.239    79.536    0.11E-03    0.21E-03    0.56E-07
   0      8    10.239    38.668    0.96E-04    0.19E-03    0.52E-07
 Optimization of the real space projectors (new method)

 maximal supplied QI-value         = 24.76
 optimisation between [QCUT,QGAM] = [ 10.15, 20.30] = [ 28.85,115.39] Ry 
 Optimized for a Real-space Cutoff    1.38 Angstroem

   l    n(q)    QCUT    max X(q) W(low)/X(q) W(high)/X(q)  e(spline) 
   0      8    10.150    20.381    0.22E-03    0.32E-03    0.29E-06
   0      8    10.150    15.268    0.23E-03    0.35E-03    0.30E-06
   1      8    10.150     5.964    0.46E-03    0.53E-03    0.21E-06
   1      8    10.150     5.382    0.38E-03    0.45E-03    0.19E-06
  PAW_PBE Na_pv 19Sep2006               :
 energy of atom  1       EATOM= -766.0439
 kinetic energy error for atom=    0.0103 (will be added to EATOM!!)
  PAW_PBE Mg_pv 13Apr2007               :
 energy of atom  2       EATOM=-1056.7344
 kinetic energy error for atom=    0.0820 (will be added to EATOM!!)
  PAW_PBE Mn_pv 02Aug2007               :
 energy of atom  3       EATOM=-2025.2664
 kinetic energy error for atom=    0.0284 (will be added to EATOM!!)
  PAW_PBE O 08Apr2002                   :
 energy of atom  4       EATOM= -432.3788
 kinetic energy error for atom=    0.1156 (will be added to EATOM!!)
 
 
 POSCAR: Na Mg Mn  O                             
  positions in cartesian coordinates
  No initial velocities read in

 METAGGA = SCAN     LMAXTAU =  6    LMIXTAU =  F

 exchange correlation table for  LEXCH =        8
   RHO(1)=    0.500       N(1)  =     2000
   RHO(2)=  100.500       N(2)  =     4000

 VTST: version 3.2, (02/03/18)

 CHAIN: initializing optimizer
 
 OPT: Using VASP Dynamics algorithm
 CHAIN: Read ICHAIN            0
 
 POSCAR: Na Mg Mn  O                             
  positions in cartesian coordinates
  No initial velocities read in
 


--------------------------------------------------------------------------------------------------------


 ion  position               nearest neighbor table
   1  0.466  0.665  0.238-  79 2.32  65 2.35
   2  0.479  0.398  0.753-  71 2.28  48 2.37  45 2.37  33 2.98
   3  0.127  0.161  0.749-  61 2.33  58 2.34
   4  0.965  0.465  0.756-  83 2.29  60 2.33  80 2.38  37 2.76  39 2.92
   5  0.957  0.964  0.258-  63 2.25  67 2.32  76 2.34  27 2.71  25 2.95
   6  0.461  0.997  0.253-  42 2.37  31 2.92
   7  0.874  0.719  0.758-  73 2.21  72 2.28  34 2.89
   8  0.313  0.640  0.747-  82 2.32  85 2.32  81 2.36  40 2.80  38 2.91
   9  0.807  0.158  0.252-  64 2.27  55 2.28  32 2.79  30 2.87
  10  0.614  0.436  0.250-  43 2.30  52 2.34
  11  0.124  0.455  0.255-  64 2.34  77 2.36  86 2.37
  12  0.270  0.947  0.751-  44 2.29
  13  0.649  0.181  0.761-  60 2.22  49 2.37
  14  0.764  0.958  0.759-  59 2.23  56 2.33
  15  0.983  0.657  0.251-  77 2.25
  16  0.281  0.173  0.252-  52 2.28  41 2.29  50 2.34  26 2.89  28 2.91
  17  0.633  0.313  0.999-  60 1.95  53 1.95  71 2.01  43 2.06  66 2.06  49 2.15  37 2.78  30 2.80

  18  0.639  0.304  0.497-  62 1.96  57 2.02  68 2.05  75 2.06  46 2.07  52 2.15  32 2.81  39 2.82
                            31 2.85
  19  0.114  0.301  1.000-  61 1.98  78 2.03  41 2.04  48 2.06  55 2.09  83 2.10  25 2.78  30 2.81

  20  0.119  0.304  0.500-  64 1.97  50 2.03  80 2.05  45 2.07  58 2.11  87 2.11  32 2.80  40 2.81

  21  0.126  0.816  0.003-  73 1.94  42 2.03  84 2.04  67 2.05  47 2.06  77 2.24
  22  0.141  0.816  0.500-  51 1.90  76 2.02  44 2.04  81 2.09  70 2.11  86 2.15  28 2.81
  23  0.619  0.813  0.008-  79 1.98  54 2.05  65 2.05  72 2.07  59 2.13  85 2.14  29 2.80
  24  0.634  0.807  0.489-  69 1.93  63 2.08  82 2.10  88 2.11  74 2.11  56 2.20  36 2.85  35 2.86

  25  0.960  0.981  0.996-  41 1.91  61 1.94  47 1.97  72 1.97  54 1.99  67 2.02  19 2.78  26 2.87
                            30 2.91  34 2.94   5 2.95
  26  0.291  0.146  0.996-  47 1.81  48 1.86  43 1.95  42 1.97  49 2.00  41 2.06  33 2.86  25 2.87
                            16 2.89  29 2.95
  27  0.964  0.974  0.500-  50 1.80  58 1.85  69 1.91  63 1.93  76 1.96  44 2.01   5 2.71  36 2.86
                            32 2.88  28 2.94
  28  0.302  0.140  0.508-  51 1.83  52 1.90  46 1.94  44 1.96  45 1.97  50 2.04  22 2.81  31 2.89
                            16 2.91  35 2.94  27 2.94
  29  0.460  0.976  0.986-  59 1.89  84 1.92  49 1.92  79 1.93  42 1.95  53 2.03  23 2.80  30 2.87
                            38 2.94  26 2.95
  30  0.791  0.147  0.996-  53 1.84  59 1.85  55 1.89  60 1.91  54 1.93  61 2.02  17 2.80  19 2.81
                            37 2.85  29 2.87   9 2.87  25 2.91
  31  0.471  0.976  0.512-  56 1.88  62 1.92  81 1.92  51 1.96  46 1.99  88 2.00  32 2.82  18 2.85
                            28 2.89   6 2.92  40 3.02
  32  0.796  0.138  0.500-  56 1.83  62 1.85  63 1.93  64 1.95  57 1.96  58 1.98   9 2.79  20 2.80
                            18 2.81  31 2.82  27 2.88  39 2.95
  33  0.455  0.476  0.006-  65 1.81  78 1.85  85 1.86  43 1.93  48 1.96  71 2.03  26 2.86  38 2.88
                            34 2.91   2 2.98
  34  0.791  0.642  0.005-  71 1.84  72 1.85  73 1.90  66 1.93  67 1.96  65 1.98  37 2.85   7 2.89
                            33 2.91  25 2.94
  35  0.463  0.478  0.491-  87 1.87  82 1.90  74 1.94  45 1.95  68 1.97  52 1.98  40 2.80  24 2.86
                            36 2.93  28 2.94
  36  0.801  0.645  0.488-  76 1.84  69 1.84  68 1.88  75 1.98  70 1.99  74 2.00  24 2.85  39 2.85
                            27 2.86  35 2.93
  37  0.953  0.476  0.001-  60 1.86  66 1.89  83 1.90  55 1.90  73 1.98  77 1.99   4 2.76  17 2.78
                            34 2.85  30 2.85  38 2.87
  38  0.284  0.637  0.005-  78 1.86  83 1.87  84 1.91  85 1.94  77 1.95  79 1.95  37 2.87  33 2.88
                             8 2.91  29 2.94
  39  0.963  0.478  0.496-  70 1.86  86 1.90  75 1.91  57 1.91  80 1.94  64 1.96  18 2.82  40 2.85
                            36 2.85   4 2.92  32 2.95
  40  0.291  0.628  0.498-  82 1.88  86 1.88  87 1.89  80 1.90  81 1.94  88 1.95   8 2.80  35 2.80
                            20 2.81  39 2.85  31 3.02
  41  0.114  0.131  0.099-  25 1.91  19 2.04  26 2.06  16 2.29
  42  0.309  0.989  0.089-  29 1.95  26 1.97  21 2.03   6 2.37
  43  0.453  0.308  0.092-  33 1.93  26 1.95  17 2.06  10 2.30
  44  0.132  0.980  0.602-  28 1.96  27 2.01  22 2.04  12 2.29
  45  0.305  0.316  0.590-  35 1.95  28 1.97  20 2.07   2 2.37
  46  0.465  0.143  0.604-  28 1.94  31 1.99  18 2.07
  47  0.138  0.997  0.908-  26 1.81  25 1.97  21 2.06
  48  0.297  0.308  0.910-  26 1.86  33 1.96  19 2.06   2 2.37
  49  0.450  0.133  0.897-  29 1.92  26 2.00  17 2.15  13 2.37
  50  0.119  0.125  0.416-  27 1.80  20 2.03  28 2.04  16 2.34
  51  0.308  0.988  0.423-  28 1.83  22 1.90  31 1.96
  52  0.447  0.297  0.406-  28 1.90  35 1.98  18 2.15  16 2.28  10 2.34
  53  0.634  0.144  0.084-  30 1.84  17 1.95  29 2.03
  54  0.800  0.994  0.093-  30 1.93  25 1.99  23 2.05
  55  0.937  0.309  0.093-  30 1.89  37 1.90  19 2.09   9 2.28
  56  0.642  0.996  0.595-  32 1.83  31 1.88  24 2.20  14 2.33
  57  0.814  0.312  0.592-  39 1.91  32 1.96  18 2.02
  58  0.949  0.115  0.597-  27 1.85  32 1.98  20 2.11   3 2.34
  59  0.635  0.998  0.903-  30 1.85  29 1.89  23 2.13  14 2.23
  60  0.802  0.317  0.910-  37 1.86  30 1.91  17 1.95  13 2.22   4 2.33
  61  0.955  0.138  0.898-  25 1.94  19 1.98  30 2.02   3 2.33
  62  0.633  0.128  0.415-  32 1.85  31 1.92  18 1.96
  63  0.815  0.991  0.401-  27 1.93  32 1.93  24 2.08   5 2.25
  64  0.954  0.306  0.406-  32 1.95  39 1.96  20 1.97   9 2.27  11 2.34
  65  0.611  0.627  0.091-  33 1.81  34 1.98  23 2.05   1 2.35
  66  0.805  0.487  0.098-  37 1.89  34 1.93  17 2.06
  67  0.949  0.811  0.100-  34 1.96  25 2.02  21 2.05   5 2.32
  68  0.639  0.488  0.576-  36 1.88  35 1.97  18 2.05
  69  0.797  0.799  0.575-  36 1.84  27 1.91  24 1.93
  70  0.956  0.630  0.588-  39 1.86  36 1.99  22 2.11
  71  0.637  0.491  0.914-  34 1.84  17 2.01  33 2.03   2 2.28
  72  0.791  0.798  0.917-  34 1.85  25 1.97  23 2.07   7 2.28
  73  0.957  0.651  0.917-  34 1.90  21 1.94  37 1.98   7 2.21
  74  0.626  0.626  0.387-  35 1.94  36 2.00  24 2.11
  75  0.809  0.479  0.397-  39 1.91  36 1.98  18 2.06
  76  0.962  0.806  0.409-  36 1.84  27 1.96  22 2.02   5 2.34
  77  0.121  0.623  0.108-  38 1.95  37 1.99  21 2.24  15 2.25  11 2.36
  78  0.294  0.480  0.084-  33 1.85  38 1.86  19 2.03
  79  0.445  0.815  0.090-  29 1.93  38 1.95  23 1.98   1 2.32
  80  0.125  0.483  0.593-  40 1.90  39 1.94  20 2.05   4 2.38
  81  0.312  0.799  0.593-  31 1.92  40 1.94  22 2.09   8 2.36
  82  0.452  0.630  0.585-  40 1.88  35 1.90  24 2.10   8 2.32
  83  0.121  0.490  0.913-  38 1.87  37 1.90  19 2.10   4 2.29
  84  0.293  0.801  0.911-  38 1.91  29 1.92  21 2.04
  85  0.441  0.622  0.913-  33 1.86  38 1.94  23 2.14   8 2.32
  86  0.133  0.626  0.405-  40 1.88  39 1.90  22 2.15  11 2.37
  87  0.305  0.479  0.403-  35 1.87  40 1.89  20 2.11
  88  0.444  0.804  0.406-  40 1.95  31 2.00  24 2.11
 
  LATTYP: Found a hexagonal cell.
 ALAT       =    10.0190000534
 C/A-ratio  =     1.1196726572
  
  Lattice vectors:
  
 A1 = (  10.0190000534,   0.0000000000,   0.0000000000)
 A2 = (  -5.0095000267,   8.6767085668,   0.0000000000)
 A3 = (   0.0000000000,   0.0000000000,  11.2180004120)


Analysis of symmetry for initial positions (statically):
=====================================================================
 Subroutine PRICEL returns:
 Original cell was already a primitive cell.
 

 Routine SETGRP: Setting up the symmetry group for a 
 hexagonal supercell.


 Subroutine GETGRP returns: Found  1 space group operations
 (whereof  1 operations were pure point group operations)
 out of a pool of 24 trial point group operations.


The static configuration has the point symmetry C_1 .


Analysis of symmetry for dynamics (positions and initial velocities):
=====================================================================
 Subroutine PRICEL returns:
 Original cell was already a primitive cell.
 

 Routine SETGRP: Setting up the symmetry group for a 
 hexagonal supercell.


 Subroutine GETGRP returns: Found  1 space group operations
 (whereof  1 operations were pure point group operations)
 out of a pool of 24 trial point group operations.


The dynamic configuration has the point symmetry C_1 .


Analysis of structural, dynamic, and magnetic symmetry:
=====================================================================
 Subroutine PRICEL returns:
 Original cell was already a primitive cell.
 

 Routine SETGRP: Setting up the symmetry group for a 
 hexagonal supercell.


 Subroutine GETGRP returns: Found  1 space group operations
 (whereof  1 operations were pure point group operations)
 out of a pool of 24 trial point group operations.


The magnetic configuration has the point symmetry C_1 .


 Subroutine INISYM returns: Found  1 space group operations
 (whereof  1 operations are pure point group operations),
 and found     1 'primitive' translations

 
 

Automatic generation of k-mesh.
 generate k-points for:    2    2    2
Space group operators:
 irot       det(A)        alpha          n_x          n_y          n_z        tau_x        tau_y        tau_z
    1     1.000000     0.000000     1.000000     0.000000     0.000000     0.000000     0.000000     0.000000
 
 Subroutine IBZKPT returns following result:
 ===========================================
 
 Found      8 irreducible k-points:
 
 Following reciprocal coordinates:
            Coordinates               Weight
  0.000000  0.000000  0.000000      1.000000
  0.500000 -0.000000 -0.000000      1.000000
  0.000000  0.500000  0.000000      1.000000
  0.500000  0.500000 -0.000000      1.000000
  0.000000  0.000000  0.500000      1.000000
  0.500000 -0.000000  0.500000      1.000000
  0.000000  0.500000  0.500000      1.000000
  0.500000  0.500000  0.500000      1.000000
 
 Following cartesian coordinates:
            Coordinates               Weight
  0.000000  0.000000  0.000000      1.000000
  0.049905  0.028813 -0.000000      1.000000
  0.000000  0.057626  0.000000      1.000000
  0.049905  0.086438 -0.000000      1.000000
  0.000000  0.000000  0.044571      1.000000
  0.049905  0.028813  0.044571      1.000000
  0.000000  0.057626  0.044571      1.000000
  0.049905  0.086438  0.044571      1.000000
 


--------------------------------------------------------------------------------------------------------




 Dimension of arrays:
   k-points           NKPTS =      8   k-points in BZ     NKDIM =      8   number of bands    NBANDS=    448
   number of dos      NEDOS =    301   number of ions     NIONS =     88
   non local maximal  LDIM  =      6   non local SUM 2l+1 LMDIM =     18
   total plane-waves  NPLWV = 140000
   max r-space proj   IRMAX =   1632   max aug-charges    IRDMAX=   4555
   dimension x,y,z NGX =    50 NGY =   50 NGZ =   56
   dimension x,y,z NGXF=   100 NGYF=  100 NGZF=  112
   support grid    NGXF=   100 NGYF=  100 NGZF=  112
   ions per type =              16   8  16  48
   NGX,Y,Z   is equivalent  to a cutoff of   8.30,  8.30,  8.30 a.u.
   NGXF,Y,Z  is equivalent  to a cutoff of  16.59, 16.59, 16.60 a.u.

 SYSTEM =  unknown system                          
 POSCAR =  Na Mg Mn  O                             

 Startparameter for this run:
   NWRITE =      2    write-flag & timer
   PREC   = normal    normal or accurate (medium, high low for compatibility)
   ISTART =      0    job   : 0-new  1-cont  2-samecut
   ICHARG =      1    charge: 1-file 2-atom 10-const
   ISPIN  =      2    spin polarized calculation?
   LNONCOLLINEAR =      F non collinear calculations
   LSORBIT =      F    spin-orbit coupling
   INIWAV =      1    electr: 0-lowe 1-rand  2-diag
   LASPH  =      T    aspherical Exc in radial PAW
   METAGGA=      F    non-selfconsistent MetaGGA calc.

 Electronic Relaxation 1
   ENCUT  =  400.0 eV  29.40 Ry    5.42 a.u.  16.34 16.34 18.29*2*pi/ulx,y,z
   ENINI  =  400.0     initial cutoff
   ENAUG  =  758.8 eV  augmentation charge cutoff
   NELM   =    200;   NELMIN=  6; NELMDL=-12     # of ELM steps 
   EDIFF  = 0.1E-04   stopping-criterion for ELM
   LREAL  =      T    real-space projection
   NLSPLINE    = F    spline interpolate recip. space projectors
   LCOMPAT=      F    compatible to vasp.4.4
   GGA_COMPAT  = T    GGA compatible to vasp.4.4-vasp.4.6
   LMAXPAW     = -100 max onsite density
   LMAXMIX     =    4 max onsite mixed and CHGCAR
   VOSKOWN=      0    Vosko Wilk Nusair interpolation
   ROPT   =   -0.00050  -0.00050  -0.00050  -0.00050
 Ionic relaxation
   EDIFFG = 0.1E-03   stopping-criterion for IOM
   NSW    =      1    number of steps for IOM
   NBLOCK =      1;   KBLOCK =      1    inner block; outer block 
   IBRION =     -1    ionic relax: 0-MD 1-quasi-New 2-CG
   NFREE  =      0    steps in history (QN), initial steepest desc. (CG)
   ISIF   =      2    stress and relaxation
   IWAVPR =     10    prediction:  0-non 1-charg 2-wave 3-comb
   ISYM   =      2    0-nonsym 1-usesym 2-fastsym
   LCORR  =      T    Harris-Foulkes like correction to forces

   POTIM  = 0.5000    time-step for ionic-motion
   TEIN   =    0.0    initial temperature
   TEBEG  =    0.0;   TEEND  =   0.0 temperature during run
   SMASS  =  -3.00    Nose mass-parameter (am)
   estimated Nose-frequenzy (Omega)   =  0.10E-29 period in steps =****** mass=  -0.229E-26a.u.
   SCALEE = 1.0000    scale energy and forces
   NPACO  =    256;   APACO  = 16.0  distance and # of slots for P.C.
   PSTRESS=    0.0 pullay stress

  Mass of Ions in am
   POMASS =  22.99 24.30 54.94 16.00
  Ionic Valenz
   ZVAL   =   7.00  8.00 13.00  6.00
  Atomic Wigner-Seitz radii
   RWIGS  =  -1.00 -1.00 -1.00 -1.00
  virtual crystal weights 
   VCA    =   1.00  1.00  1.00  1.00
   NELECT =     672.0000    total number of electrons
   NUPDOWN=      48.0000    fix difference up-down

 DOS related values:
   EMIN   =  10.00;   EMAX   =-10.00  energy-range for DOS
   EFERMI =   0.00
   ISMEAR =     0;   SIGMA  =   0.05  broadening in eV -4-tet -1-fermi 0-gaus

 Electronic relaxation 2 (details)
   IALGO  =     48    algorithm
   LDIAG  =      T    sub-space diagonalisation (order eigenvalues)
   LSUBROT=      F    optimize rotation matrix (better conditioning)
   TURBO    =      0    0=normal 1=particle mesh
   IRESTART =      0    0=no restart 2=restart with 2 vectors
   NREBOOT  =      0    no. of reboots
   NMIN     =      0    reboot dimension
   EREF     =   0.00    reference energy to select bands
   IMIX   =      4    mixing-type and parameters
     AMIX     =   0.40;   BMIX     =  1.00
     AMIX_MAG =   1.60;   BMIX_MAG =  1.00
     AMIN     =   0.10
     WC   =   100.;   INIMIX=   1;  MIXPRE=   1;  MAXMIX= -45

 Intra band minimization:
   WEIMIN = 0.0000     energy-eigenvalue tresh-hold
   EBREAK =  0.56E-08  absolut break condition
   DEPER  =   0.30     relativ break condition  

   TIME   =   0.40     timestep for ELM

  volume/ion in A,a.u.               =      11.08        74.78
  Fermi-wavevector in a.u.,A,eV,Ry     =   1.445993  2.732531 28.448379  2.090897
  Thomas-Fermi vector in A             =   2.564112
 
 Write flags
   LWAVE        =      F    write WAVECAR
   LDOWNSAMPLE  =      F    k-point downsampling of WAVECAR
   LCHARG       =      F    write CHGCAR
   LVTOT        =      F    write LOCPOT, total local potential
   LVHAR        =      F    write LOCPOT, Hartree potential only
   LELF         =      F    write electronic localiz. function (ELF)
   LORBIT       =     11    0 simple, 1 ext, 2 COOP (PROOUT), +10 PAW based schemes


 Dipole corrections
   LMONO  =      F    monopole corrections only (constant potential shift)
   LDIPOL =      F    correct potential (dipole corrections)
   IDIPOL =      0    1-x, 2-y, 3-z, 4-all directions 
   EPSILON=  1.0000000 bulk dielectric constant

 Exchange correlation treatment:
   GGA     =    --    GGA type
   LEXCH   =     8    internal setting for exchange type
   VOSKOWN=      0    Vosko Wilk Nusair interpolation
   LHFCALC =     F    Hartree Fock is set to
   LHFONE  =     F    Hartree Fock one center treatment
   AEXX    =    0.0000 exact exchange contribution

 Linear response parameters
   LEPSILON=     F    determine dielectric tensor
   LRPA    =     F    only Hartree local field effects (RPA)
   LNABLA  =     F    use nabla operator in PAW spheres
   LVEL    =     F    velocity operator in full k-point grid
   LINTERFAST=   F  fast interpolation
   KINTER  =     0    interpolate to denser k-point grid
   CSHIFT  =0.1000    complex shift for real part using Kramers Kronig
   OMEGAMAX=  -1.0    maximum frequency
   DEG_THRESHOLD= 0.2000000E-02 threshold for treating states as degnerate
   RTIME   =   -0.100 relaxation time in fs
  (WPLASMAI=    0.000 imaginary part of plasma frequency in eV, 0.658/RTIME)
   DFIELD  = 0.0000000 0.0000000 0.0000000 field for delta impulse in time
 
 Orbital magnetization related:
   ORBITALMAG=     F  switch on orbital magnetization
   LCHIMAG   =     F  perturbation theory with respect to B field
   DQ        =  0.001000  dq finite difference perturbation B field
   LLRAUG    =     F  two centre corrections for induced B field



--------------------------------------------------------------------------------------------------------


 Static calculation
 charge density and potential will be updated during run
 spin polarized calculation
 RMM-DIIS sequential band-by-band
 perform sub-space diagonalisation
    before iterative eigenvector-optimisation
 modified Broyden-mixing scheme, WC =      100.0
 initial mixing is a Kerker type mixing with AMIX =  0.4000 and BMIX =      1.0000
 Hartree-type preconditioning will be used
 using additional bands          112
 real space projection scheme for non local part
 use partial core corrections
 calculate Harris-corrections to forces 
   (improved forces if not selfconsistent)
 use gradient corrections 
 use of overlap-Matrix (Vanderbilt PP)
 Gauss-broadening in eV      SIGMA  =   0.05


--------------------------------------------------------------------------------------------------------


  energy-cutoff  :      400.00
  volume of cell :      975.20
      direct lattice vectors                 reciprocal lattice vectors
    10.019000053  0.000000000  0.000000000     0.099810360  0.057625538 -0.000000000
    -5.009500027  8.676708567  0.000000000     0.000000000  0.115251076  0.000000000
     0.000000000  0.000000000 11.218000412     0.000000000  0.000000000  0.089142446

  length of vectors
    10.019000053 10.019000053 11.218000412     0.115251076  0.115251076  0.089142446


 
 k-points in units of 2pi/SCALE and weight: read from INCAR                         
   0.00000000  0.00000000  0.00000000       0.125
   0.04990518  0.02881277 -0.00000000       0.125
   0.00000000  0.05762554  0.00000000       0.125
   0.04990518  0.08643831 -0.00000000       0.125
   0.00000000  0.00000000  0.04457122       0.125
   0.04990518  0.02881277  0.04457122       0.125
   0.00000000  0.05762554  0.04457122       0.125
   0.04990518  0.08643831  0.04457122       0.125
 
 k-points in reciprocal lattice and weights: read from INCAR                         
   0.00000000  0.00000000  0.00000000       0.125
   0.50000000 -0.00000000 -0.00000000       0.125
   0.00000000  0.50000000  0.00000000       0.125
   0.50000000  0.50000000 -0.00000000       0.125
   0.00000000  0.00000000  0.50000000       0.125
   0.50000000 -0.00000000  0.50000000       0.125
   0.00000000  0.50000000  0.50000000       0.125
   0.50000000  0.50000000  0.50000000       0.125
 
 position of ions in fractional coordinates (direct lattice) 
   0.46618565  0.66518295  0.23843376
   0.47888097  0.39848257  0.75287125
   0.12663059  0.16093660  0.74879655
   0.96461852  0.46547819  0.75586733
   0.95694870  0.96446134  0.25806114
   0.46082861  0.99674456  0.25323140
   0.87391933  0.71851439  0.75782757
   0.31348151  0.63996832  0.74678639
   0.80730175  0.15796313  0.25171687
   0.61384165  0.43628097  0.24955160
   0.12382062  0.45549432  0.25480833
   0.26980911  0.94739743  0.75069617
   0.64930403  0.18055036  0.76076571
   0.76367280  0.95782766  0.75859330
   0.98322105  0.65708788  0.25109912
   0.28070865  0.17299532  0.25225708
   0.63292268  0.31255861  0.99893346
   0.63861758  0.30421789  0.49684345
   0.11370659  0.30137465  0.99968833
   0.11869443  0.30434006  0.50012656
   0.12584297  0.81588196  0.00348543
   0.14072460  0.81614128  0.49991440
   0.61898824  0.81281628  0.00817025
   0.63426790  0.80722430  0.48903011
   0.96012697  0.98106441  0.99578467
   0.29131138  0.14616602  0.99649670
   0.96372919  0.97418162  0.49988855
   0.30232972  0.14026978  0.50836689
   0.46048329  0.97578822  0.98648597
   0.79055508  0.14719061  0.99604204
   0.47087014  0.97623655  0.51220893
   0.79595437  0.13790137  0.50017738
   0.45508420  0.47610911  0.00579088
   0.79096376  0.64193351  0.00527651
   0.46339665  0.47801997  0.49065340
   0.80056652  0.64466035  0.48750043
   0.95325243  0.47575529  0.00121138
   0.28391731  0.63736611  0.00457487
   0.96289501  0.47818248  0.49621232
   0.29117275  0.62821057  0.49773755
   0.11352974  0.13053567  0.09907024
   0.30939705  0.98875518  0.08858843
   0.45342856  0.30807880  0.09201551
   0.13196886  0.97977563  0.60171419
   0.30472069  0.31567155  0.58967728
   0.46473236  0.14289520  0.60412727
   0.13804069  0.99722520  0.90823673
   0.29659257  0.30791515  0.91040289
   0.44954189  0.13340658  0.89687998
   0.11931024  0.12488837  0.41634336
   0.30785645  0.98754044  0.42327686
   0.44653025  0.29721063  0.40579335
   0.63413143  0.14404886  0.08434480
   0.80042130  0.99350854  0.09317079
   0.93718400  0.30880258  0.09310839
   0.64240477  0.99604420  0.59537170
   0.81400905  0.31228201  0.59203332
   0.94891201  0.11545853  0.59704580
   0.63473607  0.99776439  0.90342304
   0.80184396  0.31702459  0.91009089
   0.95451684  0.13790483  0.89835083
   0.63329879  0.12832631  0.41517560
   0.81535381  0.99096714  0.40136921
   0.95353622  0.30616218  0.40552682
   0.61148604  0.62700043  0.09137725
   0.80472247  0.48723314  0.09843198
   0.94917781  0.81107945  0.09993403
   0.63931070  0.48822315  0.57649222
   0.79686107  0.79856894  0.57490014
   0.95631315  0.62964198  0.58840344
   0.63726198  0.49105257  0.91431624
   0.79116934  0.79843410  0.91731143
   0.95683976  0.65077903  0.91654480
   0.62631600  0.62591476  0.38747369
   0.80900959  0.47933268  0.39658761
   0.96213595  0.80577905  0.40899713
   0.12140128  0.62314989  0.10793724
   0.29437483  0.47989050  0.08424924
   0.44475006  0.81487351  0.09001426
   0.12473668  0.48288587  0.59344623
   0.31191326  0.79890548  0.59259313
   0.45194792  0.62987249  0.58511676
   0.12128032  0.49046363  0.91278299
   0.29288974  0.80076102  0.91060792
   0.44057437  0.62227859  0.91324653
   0.13293497  0.62593781  0.40530396
   0.30460342  0.47908028  0.40316811
   0.44387004  0.80415171  0.40552058
 
 position of ions in cartesian coordinates  (Angst):
   1.33848003  5.77159857  2.67475000
   2.80171000  3.45751713  8.44571000
   0.46249995  1.39640000  8.40000000
   7.33269997  4.03881857  8.47932000
   4.75620000  8.36835000  2.89493000
  -0.37615003  8.64846207  2.84075000
   5.15639989  6.23434000  8.50131000
  -0.06515003  5.55281857  8.37745000
   7.29704000  1.37060000  2.82376000
   3.96453000  3.78548287  2.79947000
  -1.04124003  3.95219143  2.85844000
  -2.04276997  8.22029143  8.42131000
   5.60091005  1.56658287  8.53427000
   2.85300013  8.31079143  8.50990000
   6.55921000  5.70136000  2.81683000
   1.94579995  1.50103000  2.82982000
   4.77549000  2.71198000 11.20603601
   4.87433000  2.63961000  5.57359000
  -0.37051000  2.61494000 11.21450413
  -0.33539200  2.64067000  5.61042000
  -2.82634000  7.07917000  0.03909959
  -2.67854000  7.08142000  5.60804000
   2.12984000  7.05257000  0.09165390
   2.31094000  7.00405000  5.48594000
   4.70487000  8.51241000 11.17071281
   2.18643000  1.26824000 11.17870041
   4.77544000  8.45269000  5.60775000
   2.32636000  1.21708000  5.70286000
  -0.27462900  8.46663000 11.06640000
   7.18322000  1.27713000 11.17360000
  -0.17280900  8.47052000  5.74596000
   7.28385000  1.19653000  5.61099000
   2.17442000  4.13106000  0.06496210
   4.70890000  5.56987000  0.05919190
   2.24813000  4.14764000  5.50415000
   4.79145000  5.59353000  5.46878000
   7.16734000  4.12799000  0.01358930
  -0.34831800  5.53024000  0.05132090
   7.25179000  4.14905000  5.56651000
  -0.22976100  5.45080000  5.58362000
   0.48353600  1.13262000  1.11137000
  -1.85332003  8.57914057  0.99378500
   2.99958000  2.67311000  1.03223000
  -3.58599003  8.50122757  6.75003000
   1.47164000  2.73899000  6.61500000
   3.94032000  1.23986000  6.77710000
  -3.61257003  8.65263247 10.18860000
   1.42906000  2.67169000 10.21290000
   3.83566000  1.15753000 10.06120000
   0.56974100  1.08362000  4.67054000
  -1.86267003  8.56860057  4.74832000
   2.98491000  2.57881000  4.55219000
   5.63175000  1.24987000  0.94618000
   3.04243997  8.62038407  1.04519000
   7.84270000  2.67939000  1.04449000
   1.44656997  8.64238527  6.67888000
   6.59118000  2.70958000  6.64143000
   8.92876000  1.00180000  6.69766000
   1.36111997  8.65731087 10.13460000
   6.44554000  2.75073000 10.20940000
   8.87247000  1.19656000 10.07770000
   5.70217000  1.11345000  4.65744000
   3.20477997  8.59833307  4.50256000
   8.01976000  2.65648000  4.54920000
   2.98552000  5.44030000  1.02507000
   5.62172000  4.22758000  1.10421000
   5.44671000  7.03750000  1.12106000
   3.95950000  4.23617000  6.46709000
   3.98332000  6.92895000  6.44923000
   6.42711000  5.46322000  6.60071000
   3.92480000  4.26072000 10.25680000
   3.92697000  6.92778000 10.29040000
   6.32650000  5.64662000 10.28180000
   3.13954000  5.43088000  4.34668000
   5.70425000  4.15903000  4.44892000
   5.60309000  6.99151000  4.58813000
  -1.90535000  5.40689000  1.21084000
   0.54533000  4.16387000  0.94510800
   0.37384200  7.07042000  1.00978000
  -1.16928000  4.18986000  6.65728000
  -0.87705800  6.93187000  6.64771000
   1.37272000  5.46522000  6.56384000
  -1.24187000  4.25561000 10.23960000
  -1.07695000  6.94797000 10.21520000
   1.29681000  5.39933000 10.24480000
  -1.80376000  5.43108000  4.54670000
   0.65186900  4.15684000  4.52274000
   0.41873600  6.97739000  4.54913000
 


--------------------------------------------------------------------------------------------------------


 k-point  1 :   0.0000 0.0000 0.0000  plane waves:   17725
 k-point  2 :   0.5000-0.0000-0.0000  plane waves:   17736
 k-point  3 :   0.0000 0.5000 0.0000  plane waves:   17736
 k-point  4 :   0.5000 0.5000-0.0000  plane waves:   17736
 k-point  5 :   0.0000 0.0000 0.5000  plane waves:   17676
 k-point  6 :   0.5000-0.0000 0.5000  plane waves:   17700
 k-point  7 :   0.0000 0.5000 0.5000  plane waves:   17700
 k-point  8 :   0.5000 0.5000 0.5000  plane waves:   17700

 maximum and minimum number of plane-waves per node :     17736    17676

 maximum number of plane-waves:     17736
 maximum index in each direction: 
   IXMAX=   16   IYMAX=   16   IZMAX=   18
   IXMIN=  -16   IYMIN=  -16   IZMIN=  -18


 serial   3D FFT for wavefunctions
 parallel 3D FFT for charge:
    minimum data exchange during FFTs selected (reduces bandwidth)


 total amount of memory used by VASP MPI-rank0   104120. kBytes
=======================================================================

   base      :      30000. kBytes
   nonlr-proj:      13678. kBytes
   fftplans  :       1316. kBytes
   grid      :      22786. kBytes
   one-center:       2737. kBytes
   wavefun   :      33603. kBytes
 
     INWAV:  cpu time    0.0000: real time    0.0001
 Broyden mixing: mesh for mixing (old mesh)
   NGX = 33   NGY = 33   NGZ = 37
  (NGX  =100   NGY  =100   NGZ  =112)
  gives a total of  40293 points

 initial charge density was supplied:
 charge density of overlapping atoms calculated
 number of electron     672.0000000 magnetization      48.0000000
 keeping initial charge density in first step


--------------------------------------------------------------------------------------------------------


 Maximum index for non-local projection operator         1548
 Maximum index for augmentation-charges          265 (set IRDMAX)


--------------------------------------------------------------------------------------------------------


 First call to EWALD:  gamma=   0.179
 Maximum number of real-space cells 3x 3x 2
 Maximum number of reciprocal cells 3x 3x 3

    FEWALD:  cpu time    0.0028: real time    0.0036


--------------------------------------- Iteration      1(   1)  ---------------------------------------


    POTLOK:  cpu time    0.0724: real time    0.0742
    SETDIJ:  cpu time    2.5540: real time    2.5567
    EDDIAG:  cpu time    3.6802: real time    3.6940
  RMM-DIIS:  cpu time   10.4563: real time   10.4877
    ORTHCH:  cpu time    0.5998: real time    0.6039
       DOS:  cpu time    0.0012: real time    0.0014
    --------------------------------------------
      LOOP:  cpu time   17.3639: real time   17.4179

 eigenvalue-minimisations  :  7168
 total energy-change (2. order) : 0.1850465E+04  (-0.3585777E+05)
 number of electron     672.0000000 magnetization      48.0000000
 augmentation part      672.0000000 magnetization      48.0000000

 Free energy of the ion-electron system (eV)
  ---------------------------------------------------
  alpha Z        PSCENC =      2652.81237852
  Ewald energy   TEWEN  =    -41654.05011805
  -Hartree energ DENC   =    -25946.79302809
  -exchange      EXHF   =         0.00000000
  -V(xc)+E(xc)   XCENC  =      3606.71016645
  PAW double counting   =     55594.23204139   -59034.67079123
  entropy T*S    EENTRO =        -0.04436947
  eigenvalues    EBANDS =     -7229.92972778
  atomic energy  EATOM  =     73862.19814772
  Solvation  Ediel_sol  =         0.00000000
  ---------------------------------------------------
  free energy    TOTEN  =      1850.46469946 eV

  energy without entropy =     1850.50906892  energy(sigma->0) =     1850.48688419


--------------------------------------------------------------------------------------------------------




--------------------------------------- Iteration      1(   2)  ---------------------------------------


    EDDIAG:  cpu time    3.6992: real time    3.7312
  RMM-DIIS:  cpu time   10.4622: real time   10.4828
    ORTHCH:  cpu time    0.5948: real time    0.5988
       DOS:  cpu time    0.0011: real time    0.0011
    --------------------------------------------
      LOOP:  cpu time   14.7573: real time   14.8138

 eigenvalue-minimisations  :  7168
 total energy-change (2. order) :-0.2680991E+04  (-0.8662099E+04)
 number of electron     672.0000000 magnetization      48.0000000
 augmentation part      672.0000000 magnetization      48.0000000

 Free energy of the ion-electron system (eV)
  ---------------------------------------------------
  alpha Z        PSCENC =      2652.81237852
  Ewald energy   TEWEN  =    -41654.05011805
  -Hartree energ DENC   =    -25946.79302809
  -exchange      EXHF   =         0.00000000
  -V(xc)+E(xc)   XCENC  =      3606.71016645
  PAW double counting   =     55594.23204139   -59034.67079123
  entropy T*S    EENTRO =        -0.03779191
  eigenvalues    EBANDS =     -9910.92739394
  atomic energy  EATOM  =     73862.19814772
  Solvation  Ediel_sol  =         0.00000000
  ---------------------------------------------------
  free energy    TOTEN  =      -830.52638915 eV

  energy without entropy =     -830.48859724  energy(sigma->0) =     -830.50749319


--------------------------------------------------------------------------------------------------------




--------------------------------------- Iteration      1(   3)  ---------------------------------------


    EDDIAG:  cpu time    3.6897: real time    3.6999
  RMM-DIIS:  cpu time   10.4670: real time   10.4889
    ORTHCH:  cpu time    0.5928: real time    0.5964
       DOS:  cpu time    0.0010: real time    0.0010
    --------------------------------------------
      LOOP:  cpu time   14.7505: real time   14.7863

 eigenvalue-minimisations  :  7168
 total energy-change (2. order) : 0.2978513E+03  (-0.1560836E+04)
 number of electron     672.0000000 magnetization      48.0000000
 augmentation part      672.0000000 magnetization      48.0000000

 Free energy of the ion-electron system (eV)
  ---------------------------------------------------
  alpha Z        PSCENC =      2652.81237852
  Ewald energy   TEWEN  =    -41654.05011805
  -Hartree energ DENC   =    -25946.79302809
  -exchange      EXHF   =         0.00000000
  -V(xc)+E(xc)   XCENC  =      3606.71016645
  PAW double counting   =     55594.23204139   -59034.67079123
  entropy T*S    EENTRO =        -0.04059336
  eigenvalues    EBANDS =     -9613.07324809
  atomic energy  EATOM  =     73862.19814772
  Solvation  Ediel_sol  =         0.00000000
  ---------------------------------------------------
  free energy    TOTEN  =      -532.67504474 eV

  energy without entropy =     -532.63445139  energy(sigma->0) =     -532.65474806


--------------------------------------------------------------------------------------------------------




--------------------------------------- Iteration      1(   4)  ---------------------------------------


    EDDIAG:  cpu time    3.6872: real time    3.7234
  RMM-DIIS:  cpu time   10.4507: real time   10.4742
    ORTHCH:  cpu time    0.5952: real time    0.5989
       DOS:  cpu time    0.0009: real time    0.0009
    --------------------------------------------
      LOOP:  cpu time   14.7339: real time   14.7973

 eigenvalue-minimisations  :  7168
 total energy-change (2. order) :-0.5244487E+03  (-0.5087290E+03)
 number of electron     672.0000000 magnetization      48.0000000
 augmentation part      672.0000000 magnetization      48.0000000

 Free energy of the ion-electron system (eV)
  ---------------------------------------------------
  alpha Z        PSCENC =      2652.81237852
  Ewald energy   TEWEN  =    -41654.05011805
  -Hartree energ DENC   =    -25946.79302809
  -exchange      EXHF   =         0.00000000
  -V(xc)+E(xc)   XCENC  =      3606.71016645
  PAW double counting   =     55594.23204139   -59034.67079123
  entropy T*S    EENTRO =        -0.00223489
  eigenvalues    EBANDS =    -10137.56034069
  atomic energy  EATOM  =     73862.19814772
  Solvation  Ediel_sol  =         0.00000000
  ---------------------------------------------------
  free energy    TOTEN  =     -1057.12377887 eV

  energy without entropy =    -1057.12154398  energy(sigma->0) =    -1057.12266143


--------------------------------------------------------------------------------------------------------




--------------------------------------- Iteration      1(   5)  ---------------------------------------


    EDDIAG:  cpu time    3.6841: real time    3.6947
  RMM-DIIS:  cpu time   10.4615: real time   10.4849
    ORTHCH:  cpu time    0.5958: real time    0.5998
       DOS:  cpu time    0.0006: real time    0.0006
    --------------------------------------------
      LOOP:  cpu time   14.7421: real time   14.7800

 eigenvalue-minimisations  :  7168
 total energy-change (2. order) :-0.1482995E+03  (-0.2131304E+03)
 number of electron     672.0000000 magnetization      48.0000000
 augmentation part      672.0000000 magnetization      48.0000000

 Free energy of the ion-electron system (eV)
  ---------------------------------------------------
  alpha Z        PSCENC =      2652.81237852
  Ewald energy   TEWEN  =    -41654.05011805
  -Hartree energ DENC   =    -25946.79302809
  -exchange      EXHF   =         0.00000000
  -V(xc)+E(xc)   XCENC  =      3606.71016645
  PAW double counting   =     55594.23204139   -59034.67079123
  entropy T*S    EENTRO =        -0.00000000
  eigenvalues    EBANDS =    -10285.86211692
  atomic energy  EATOM  =     73862.19814772
  Solvation  Ediel_sol  =         0.00000000
  ---------------------------------------------------
  free energy    TOTEN  =     -1205.42332021 eV

  energy without entropy =    -1205.42332021  energy(sigma->0) =    -1205.42332021


--------------------------------------------------------------------------------------------------------




--------------------------------------- Iteration      1(   6)  ---------------------------------------


    EDDIAG:  cpu time    3.7165: real time    3.7835
  RMM-DIIS:  cpu time   10.4514: real time   10.4725
    ORTHCH:  cpu time    0.5964: real time    0.6002
       DOS:  cpu time    0.0006: real time    0.0006
    --------------------------------------------
      LOOP:  cpu time   14.7650: real time   14.8568

 eigenvalue-minimisations  :  7168
 total energy-change (2. order) :-0.2149497E+02  (-0.1153885E+03)
 number of electron     672.0000000 magnetization      48.0000000
 augmentation part      672.0000000 magnetization      48.0000000

 Free energy of the ion-electron system (eV)
  ---------------------------------------------------
  alpha Z        PSCENC =      2652.81237852
  Ewald energy   TEWEN  =    -41654.05011805
  -Hartree energ DENC   =    -25946.79302809
  -exchange      EXHF   =         0.00000000
  -V(xc)+E(xc)   XCENC  =      3606.71016645
  PAW double counting   =     55594.23204139   -59034.67079123
  entropy T*S    EENTRO =        -0.00000000
  eigenvalues    EBANDS =    -10307.35708959
  atomic energy  EATOM  =     73862.19814772
  Solvation  Ediel_sol  =         0.00000000
  ---------------------------------------------------
  free energy    TOTEN  =     -1226.91829289 eV

  energy without entropy =    -1226.91829289  energy(sigma->0) =    -1226.91829289


--------------------------------------------------------------------------------------------------------




--------------------------------------- Iteration      1(   7)  ---------------------------------------


    EDDIAG:  cpu time    3.6862: real time    3.6947
  RMM-DIIS:  cpu time   10.4658: real time   10.4906
    ORTHCH:  cpu time    0.5939: real time    0.5978
       DOS:  cpu time    0.0006: real time    0.0006
    --------------------------------------------
      LOOP:  cpu time   14.7465: real time   14.7837

 eigenvalue-minimisations  :  7168
 total energy-change (2. order) :-0.6559981E+01  (-0.7603272E+02)
 number of electron     672.0000000 magnetization      48.0000000
 augmentation part      672.0000000 magnetization      48.0000000

 Free energy of the ion-electron system (eV)
  ---------------------------------------------------
  alpha Z        PSCENC =      2652.81237852
  Ewald energy   TEWEN  =    -41654.05011805
  -Hartree energ DENC   =    -25946.79302809
  -exchange      EXHF   =         0.00000000
  -V(xc)+E(xc)   XCENC  =      3606.71016645
  PAW double counting   =     55594.23204139   -59034.67079123
  entropy T*S    EENTRO =        -0.00000000
  eigenvalues    EBANDS =    -10313.91707072
  atomic energy  EATOM  =     73862.19814772
  Solvation  Ediel_sol  =         0.00000000
  ---------------------------------------------------
  free energy    TOTEN  =     -1233.47827402 eV

  energy without entropy =    -1233.47827402  energy(sigma->0) =    -1233.47827402


--------------------------------------------------------------------------------------------------------




--------------------------------------- Iteration      1(   8)  ---------------------------------------


    EDDIAG:  cpu time    3.6993: real time    3.7253
  RMM-DIIS:  cpu time   10.4550: real time   10.4772
    ORTHCH:  cpu time    0.5971: real time    0.6009
       DOS:  cpu time    0.0007: real time    0.0007
    --------------------------------------------
      LOOP:  cpu time   14.7522: real time   14.8041

 eigenvalue-minimisations  :  7168
 total energy-change (2. order) : 0.4694852E+01  (-0.5259080E+02)
 number of electron     672.0000000 magnetization      48.0000000
 augmentation part      672.0000000 magnetization      48.0000000

 Free energy of the ion-electron system (eV)
  ---------------------------------------------------
  alpha Z        PSCENC =      2652.81237852
  Ewald energy   TEWEN  =    -41654.05011805
  -Hartree energ DENC   =    -25946.79302809
  -exchange      EXHF   =         0.00000000
  -V(xc)+E(xc)   XCENC  =      3606.71016645
  PAW double counting   =     55594.23204139   -59034.67079123
  entropy T*S    EENTRO =        -0.00000018
  eigenvalues    EBANDS =    -10309.22221899
  atomic energy  EATOM  =     73862.19814772
  Solvation  Ediel_sol  =         0.00000000
  ---------------------------------------------------
  free energy    TOTEN  =     -1228.78342247 eV

  energy without entropy =    -1228.78342229  energy(sigma->0) =    -1228.78342238


--------------------------------------------------------------------------------------------------------




--------------------------------------- Iteration      1(   9)  ---------------------------------------


    EDDIAG:  cpu time    3.6847: real time    3.6930
  RMM-DIIS:  cpu time   21.0667: real time   21.1640
    ORTHCH:  cpu time    0.5987: real time    0.6027
       DOS:  cpu time    0.0007: real time    0.0006
    --------------------------------------------
      LOOP:  cpu time   25.3507: real time   25.4603

 eigenvalue-minimisations  : 20235
 total energy-change (2. order) : 0.1801179E+02  (-0.2355152E+02)
 number of electron     672.0000000 magnetization      48.0000000
 augmentation part      672.0000000 magnetization      48.0000000

 Free energy of the ion-electron system (eV)
  ---------------------------------------------------
  alpha Z        PSCENC =      2652.81237852
  Ewald energy   TEWEN  =    -41654.05011805
  -Hartree energ DENC   =    -25946.79302809
  -exchange      EXHF   =         0.00000000
  -V(xc)+E(xc)   XCENC  =      3606.71016645
  PAW double counting   =     55594.23204139   -59034.67079123
  entropy T*S    EENTRO =        -0.00000000
  eigenvalues    EBANDS =    -10291.21042783
  atomic energy  EATOM  =     73862.19814772
  Solvation  Ediel_sol  =         0.00000000
  ---------------------------------------------------
  free energy    TOTEN  =     -1210.77163113 eV

  energy without entropy =    -1210.77163113  energy(sigma->0) =    -1210.77163113


--------------------------------------------------------------------------------------------------------




--------------------------------------- Iteration      1(  10)  ---------------------------------------


    EDDIAG:  cpu time    3.6929: real time    3.7041
  RMM-DIIS:  cpu time   21.5329: real time   21.6030
    ORTHCH:  cpu time    0.5967: real time    0.6007
       DOS:  cpu time    0.0008: real time    0.0008
    --------------------------------------------
      LOOP:  cpu time   25.8232: real time   25.9086

 eigenvalue-minimisations  : 20249
 total energy-change (2. order) :-0.3066831E+01  (-0.1030505E+01)
 number of electron     672.0000000 magnetization      48.0000000
 augmentation part      672.0000000 magnetization      48.0000000

 Free energy of the ion-electron system (eV)
  ---------------------------------------------------
  alpha Z        PSCENC =      2652.81237852
  Ewald energy   TEWEN  =    -41654.05011805
  -Hartree energ DENC   =    -25946.79302809
  -exchange      EXHF   =         0.00000000
  -V(xc)+E(xc)   XCENC  =      3606.71016645
  PAW double counting   =     55594.23204139   -59034.67079123
  entropy T*S    EENTRO =        -0.00000001
  eigenvalues    EBANDS =    -10294.27725896
  atomic energy  EATOM  =     73862.19814772
  Solvation  Ediel_sol  =         0.00000000
  ---------------------------------------------------
  free energy    TOTEN  =     -1213.83846226 eV

  energy without entropy =    -1213.83846225  energy(sigma->0) =    -1213.83846225


--------------------------------------------------------------------------------------------------------




--------------------------------------- Iteration      1(  11)  ---------------------------------------


    EDDIAG:  cpu time    3.6829: real time    3.6926
  RMM-DIIS:  cpu time   22.6933: real time   22.7489
    ORTHCH:  cpu time    0.5952: real time    0.5992
       DOS:  cpu time    0.0007: real time    0.0007
    --------------------------------------------
      LOOP:  cpu time   26.9721: real time   27.0414

 eigenvalue-minimisations  : 21711
 total energy-change (2. order) : 0.1039363E+00  (-0.9652934E-01)
 number of electron     672.0000000 magnetization      48.0000000
 augmentation part      672.0000000 magnetization      48.0000000

 Free energy of the ion-electron system (eV)
  ---------------------------------------------------
  alpha Z        PSCENC =      2652.81237852
  Ewald energy   TEWEN  =    -41654.05011805
  -Hartree energ DENC   =    -25946.79302809
  -exchange      EXHF   =         0.00000000
  -V(xc)+E(xc)   XCENC  =      3606.71016645
  PAW double counting   =     55594.23204139   -59034.67079123
  entropy T*S    EENTRO =        -0.00000001
  eigenvalues    EBANDS =    -10294.17332267
  atomic energy  EATOM  =     73862.19814772
  Solvation  Ediel_sol  =         0.00000000
  ---------------------------------------------------
  free energy    TOTEN  =     -1213.73452597 eV

  energy without entropy =    -1213.73452596  energy(sigma->0) =    -1213.73452597


--------------------------------------------------------------------------------------------------------




--------------------------------------- Iteration      1(  12)  ---------------------------------------


    EDDIAG:  cpu time    3.6799: real time    3.6904
  RMM-DIIS:  cpu time   24.0699: real time   24.1182
    ORTHCH:  cpu time    0.6001: real time    0.6039
       DOS:  cpu time    0.0008: real time    0.0008
    CHARGE:  cpu time    2.1417: real time    2.1656
    MIXING:  cpu time    0.0010: real time    0.0014
    --------------------------------------------
      LOOP:  cpu time   30.4933: real time   30.5803

 eigenvalue-minimisations  : 22888
 total energy-change (2. order) : 0.7230683E-02  (-0.6549612E-02)
 number of electron     672.0000402 magnetization      48.0000028
 augmentation part      239.1407027 magnetization      29.0481206

 Broyden mixing:
  rms(total) = 0.12664E+02    rms(broyden)= 0.12655E+02
  rms(prec ) = 0.14496E+02
  weight for this iteration     100.00

 Free energy of the ion-electron system (eV)
  ---------------------------------------------------
  alpha Z        PSCENC =      2652.81237852
  Ewald energy   TEWEN  =    -41654.05011805
  -Hartree energ DENC   =    -25946.79302809
  -exchange      EXHF   =         0.00000000
  -V(xc)+E(xc)   XCENC  =      3606.71016645
  PAW double counting   =     55594.23204139   -59034.67079123
  entropy T*S    EENTRO =        -0.00000001
  eigenvalues    EBANDS =    -10294.16609199
  atomic energy  EATOM  =     73862.19814772
  Solvation  Ediel_sol  =         0.00000000
  ---------------------------------------------------
  free energy    TOTEN  =     -1213.72729529 eV

  energy without entropy =    -1213.72729528  energy(sigma->0) =    -1213.72729529


--------------------------------------------------------------------------------------------------------




--------------------------------------- Iteration      1(  13)  ---------------------------------------


    POTLOK:  cpu time    0.0610: real time    0.0635
    SETDIJ:  cpu time    2.7224: real time    2.7246
    EDDIAG:  cpu time    3.6887: real time    3.6964
  RMM-DIIS:  cpu time   19.3364: real time   19.3783
    ORTHCH:  cpu time    0.5989: real time    0.6029
       DOS:  cpu time    0.0008: real time    0.0008
    CHARGE:  cpu time    2.1298: real time    2.1770
    MIXING:  cpu time    0.0009: real time    0.0011
    --------------------------------------------
      LOOP:  cpu time   28.5389: real time   28.6448

 eigenvalue-minimisations  : 17292
 total energy-change (2. order) : 0.2243246E+03  (-0.1381306E+03)
 number of electron     672.0000522 magnetization      48.0000027
 augmentation part      268.9613960 magnetization      26.5608635

 Broyden mixing:
  rms(total) = 0.13958E+02    rms(broyden)= 0.13955E+02
  rms(prec ) = 0.15684E+02
  weight for this iteration     100.00

 eigenvalues of (default mixing * dielectric matrix)
  average eigenvalue GAMMA=   0.3196
  0.3196

 Free energy of the ion-electron system (eV)
  ---------------------------------------------------
  alpha Z        PSCENC =      2652.81237852
  Ewald energy   TEWEN  =    -41654.05011805
  -Hartree energ DENC   =    -25283.19555896
  -exchange      EXHF   =         0.00000000
  -V(xc)+E(xc)   XCENC  =      3697.10849314
  PAW double counting   =     59974.15837399   -63399.67017521
  entropy T*S    EENTRO =        -0.07071189
  eigenvalues    EBANDS =    -10838.69350487
  atomic energy  EATOM  =     73862.19814772
  Solvation  Ediel_sol  =         0.00000000
  ---------------------------------------------------
  free energy    TOTEN  =      -989.40267561 eV

  energy without entropy =     -989.33196371  energy(sigma->0) =     -989.36731966


--------------------------------------------------------------------------------------------------------




--------------------------------------- Iteration      1(  14)  ---------------------------------------


    POTLOK:  cpu time    0.0604: real time    0.0606
    SETDIJ:  cpu time    2.7044: real time    2.7161
    EDDIAG:  cpu time    3.6904: real time    3.6977
  RMM-DIIS:  cpu time   18.9965: real time   19.0330
    ORTHCH:  cpu time    0.6003: real time    0.6058
       DOS:  cpu time    0.0006: real time    0.0006
    CHARGE:  cpu time    2.1525: real time    2.1555
    MIXING:  cpu time    0.0008: real time    0.0008
    --------------------------------------------
      LOOP:  cpu time   28.2059: real time   28.2701

 eigenvalue-minimisations  : 17755
 total energy-change (2. order) : 0.7385887E+02  (-0.1921486E+02)
 number of electron     672.0000454 magnetization      48.0000045
 augmentation part      246.7133559 magnetization      32.1847682

 Broyden mixing:
  rms(total) = 0.53034E+01    rms(broyden)= 0.52992E+01
  rms(prec ) = 0.57285E+01
  weight for this iteration     100.00

 eigenvalues of (default mixing * dielectric matrix)
  average eigenvalue GAMMA=   0.7331
  1.1065  0.3597

 Free energy of the ion-electron system (eV)
  ---------------------------------------------------
  alpha Z        PSCENC =      2652.81237852
  Ewald energy   TEWEN  =    -41654.05011805
  -Hartree energ DENC   =    -25896.22148966
  -exchange      EXHF   =         0.00000000
  -V(xc)+E(xc)   XCENC  =      3675.26995209
  PAW double counting   =     63421.98604073   -66904.67422225
  entropy T*S    EENTRO =        -0.00000000
  eigenvalues    EBANDS =    -10072.86449882
  atomic energy  EATOM  =     73862.19814772
  Solvation  Ediel_sol  =         0.00000000
  ---------------------------------------------------
  free energy    TOTEN  =      -915.54380973 eV

  energy without entropy =     -915.54380973  energy(sigma->0) =     -915.54380973


--------------------------------------------------------------------------------------------------------




--------------------------------------- Iteration      1(  15)  ---------------------------------------


    POTLOK:  cpu time    0.0598: real time    0.0608
    SETDIJ:  cpu time    2.7023: real time    2.7176
    EDDIAG:  cpu time    3.6843: real time    3.6949
  RMM-DIIS:  cpu time   19.9085: real time   19.9460
    ORTHCH:  cpu time    0.5958: real time    0.5994
       DOS:  cpu time    0.0006: real time    0.0006
    CHARGE:  cpu time    2.1483: real time    2.1552
    MIXING:  cpu time    0.0008: real time    0.0008
    --------------------------------------------
      LOOP:  cpu time   29.1004: real time   29.1753

 eigenvalue-minimisations  : 18428
 total energy-change (2. order) : 0.1402647E+02  (-0.2260000E+01)
 number of electron     672.0000457 magnetization      48.0000060
 augmentation part      249.6541661 magnetization      33.7736926

 Broyden mixing:
  rms(total) = 0.22417E+01    rms(broyden)= 0.22413E+01
  rms(prec ) = 0.23361E+01
  weight for this iteration     100.00

 eigenvalues of (default mixing * dielectric matrix)
  average eigenvalue GAMMA=   0.9247
  1.6567  0.3878  0.7296

 Free energy of the ion-electron system (eV)
  ---------------------------------------------------
  alpha Z        PSCENC =      2652.81237852
  Ewald energy   TEWEN  =    -41654.05011805
  -Hartree energ DENC   =    -25823.39743840
  -exchange      EXHF   =         0.00000000
  -V(xc)+E(xc)   XCENC  =      3707.58687283
  PAW double counting   =     67560.88402272   -71084.10301792
  entropy T*S    EENTRO =        -0.00000000
  eigenvalues    EBANDS =    -10123.44819161
  atomic energy  EATOM  =     73862.19814772
  Solvation  Ediel_sol  =         0.00000000
  ---------------------------------------------------
  free energy    TOTEN  =      -901.51734419 eV

  energy without entropy =     -901.51734419  energy(sigma->0) =     -901.51734419


--------------------------------------------------------------------------------------------------------




--------------------------------------- Iteration      1(  16)  ---------------------------------------


    POTLOK:  cpu time    0.0603: real time    0.0620
    SETDIJ:  cpu time    2.7371: real time    2.7513
    EDDIAG:  cpu time    3.7028: real time    3.7152
  RMM-DIIS:  cpu time   19.3547: real time   19.3913
    ORTHCH:  cpu time    0.5994: real time    0.6035
       DOS:  cpu time    0.0007: real time    0.0007
    CHARGE:  cpu time    2.1497: real time    2.1528
    MIXING:  cpu time    0.0009: real time    0.0009
    --------------------------------------------
      LOOP:  cpu time   28.6056: real time   28.6777

 eigenvalue-minimisations  : 17526
 total energy-change (2. order) :-0.1264009E+01  (-0.7372092E+00)
 number of electron     672.0000463 magnetization      48.0000066
 augmentation part      251.0868873 magnetization      33.8656056

 Broyden mixing:
  rms(total) = 0.14983E+01    rms(broyden)= 0.14978E+01
  rms(prec ) = 0.15788E+01
  weight for this iteration     100.00

 eigenvalues of (default mixing * dielectric matrix)
  average eigenvalue GAMMA=   0.9637
  2.0698  0.8874  0.3941  0.5033

 Free energy of the ion-electron system (eV)
  ---------------------------------------------------
  alpha Z        PSCENC =      2652.81237852
  Ewald energy   TEWEN  =    -41654.05011805
  -Hartree energ DENC   =    -25775.72375173
  -exchange      EXHF   =         0.00000000
  -V(xc)+E(xc)   XCENC  =      3708.78774011
  PAW double counting   =     70432.85394324   -73984.71975930
  entropy T*S    EENTRO =        -0.00000000
  eigenvalues    EBANDS =    -10144.93993356
  atomic energy  EATOM  =     73862.19814772
  Solvation  Ediel_sol  =         0.00000000
  ---------------------------------------------------
  free energy    TOTEN  =      -902.78135304 eV

  energy without entropy =     -902.78135304  energy(sigma->0) =     -902.78135304


--------------------------------------------------------------------------------------------------------




--------------------------------------- Iteration      1(  17)  ---------------------------------------


    POTLOK:  cpu time    0.0614: real time    0.0626
    SETDIJ:  cpu time    2.7519: real time    2.7533
    EDDIAG:  cpu time    3.6984: real time    3.7283
  RMM-DIIS:  cpu time   20.5123: real time   20.5430
    ORTHCH:  cpu time    0.5945: real time    0.5986
       DOS:  cpu time    0.0007: real time    0.0007
    CHARGE:  cpu time    2.1483: real time    2.1536
    MIXING:  cpu time    0.0010: real time    0.0011
    --------------------------------------------
      LOOP:  cpu time   29.7686: real time   29.8413

 eigenvalue-minimisations  : 18527
 total energy-change (2. order) : 0.8552882E-01  (-0.9096471E-01)
 number of electron     672.0000461 magnetization      48.0000070
 augmentation part      251.1363021 magnetization      33.8662641

 Broyden mixing:
  rms(total) = 0.78689E+00    rms(broyden)= 0.78670E+00
  rms(prec ) = 0.88769E+00
  weight for this iteration     100.00

 eigenvalues of (default mixing * dielectric matrix)
  average eigenvalue GAMMA=   0.9849
  2.2177  1.1028  0.3818  0.6736  0.5487

 Free energy of the ion-electron system (eV)
  ---------------------------------------------------
  alpha Z        PSCENC =      2652.81237852
  Ewald energy   TEWEN  =    -41654.05011805
  -Hartree energ DENC   =    -25764.30054961
  -exchange      EXHF   =         0.00000000
  -V(xc)+E(xc)   XCENC  =      3706.25025401
  PAW double counting   =     71372.31071109   -74933.22811696
  entropy T*S    EENTRO =        -0.00000000
  eigenvalues    EBANDS =    -10144.68853095
  atomic energy  EATOM  =     73862.19814772
  Solvation  Ediel_sol  =         0.00000000
  ---------------------------------------------------
  free energy    TOTEN  =      -902.69582422 eV

  energy without entropy =     -902.69582422  energy(sigma->0) =     -902.69582422


--------------------------------------------------------------------------------------------------------




--------------------------------------- Iteration      1(  18)  ---------------------------------------


    POTLOK:  cpu time    0.0604: real time    0.0606
    SETDIJ:  cpu time    2.7317: real time    2.7332
    EDDIAG:  cpu time    3.6973: real time    3.7407
  RMM-DIIS:  cpu time   19.3722: real time   19.4243
    ORTHCH:  cpu time    0.5990: real time    0.6027
       DOS:  cpu time    0.0006: real time    0.0006
    CHARGE:  cpu time    2.1488: real time    2.1521
    MIXING:  cpu time    0.0010: real time    0.0010
    --------------------------------------------
      LOOP:  cpu time   28.6110: real time   28.7152

 eigenvalue-minimisations  : 17753
 total energy-change (2. order) : 0.4046778E+00  (-0.7240337E-01)
 number of electron     672.0000460 magnetization      48.0000072
 augmentation part      250.6586727 magnetization      33.8394799

 Broyden mixing:
  rms(total) = 0.29794E+00    rms(broyden)= 0.29771E+00
  rms(prec ) = 0.31438E+00
  weight for this iteration     100.00

 eigenvalues of (default mixing * dielectric matrix)
  average eigenvalue GAMMA=   1.0159
  2.4522  1.3662  0.8395  0.5882  0.3841  0.4654

 Free energy of the ion-electron system (eV)
  ---------------------------------------------------
[...]
   4      -1.045    -0.853     1.898     0.082    -0.069    -0.009
   5      -1.144    -0.796     1.940    -0.032     0.046    -0.063
   6      -0.793    -0.948     1.741    -0.030    -0.006     0.039
   7      -1.089    -0.625     1.714    -0.165    -0.010    -0.051
   8      -1.005    -0.843     1.849    -0.111    -0.049    -0.008
   9      -1.038    -0.861     1.899    -0.074     0.038    -0.053
  10      -0.571    -0.772     1.343     0.118    -0.002     0.075
  11      -0.608    -0.939     1.546     0.161     0.000     0.033
  12      -0.574    -0.791     1.366    -0.151    -0.047     0.034
  13      -0.710    -0.716     1.426     0.166     0.071    -0.041
  14      -0.533    -0.887     1.420    -0.150     0.018     0.061
  15      -0.663    -0.841     1.504    -0.157    -0.047     0.027
  16      -1.128    -0.697     1.825     0.180    -0.014    -0.032
  17       1.646     1.415    -3.061    -0.203    -0.099     0.123
  18       1.396     1.557    -2.953    -0.132    -0.084    -0.167
  19       1.410     1.588    -2.998     0.015    -0.004     0.133
  20       1.367     1.600    -2.968     0.040     0.047    -0.109
  21       1.444     1.487    -2.931     0.172    -0.062    -0.109
  22       1.383     1.656    -3.040     0.225     0.146     0.122
  23       1.415     1.561    -2.977    -0.073    -0.034    -0.171
  24       1.599     1.323    -2.921     0.101    -0.034     0.116
  25      -0.083    -0.421     0.503    -0.639    -0.784     0.053
  26       0.545    -0.909     0.365     0.090    -1.138    -1.032
  27      -0.297    -0.300     0.598    -0.434     1.667     0.545
  28       0.226    -1.538     1.312     0.814     0.443     0.908
  29      -0.210    -1.670     1.879    -0.920     0.638     1.113
  30      -0.047     0.071    -0.024     0.215     0.070    -0.655
  31      -0.302    -1.448     1.750    -2.205    -1.613    -0.701
  32      -0.594     1.650    -1.056    -0.056     0.560     0.737
  33      -2.712    -0.492     3.204    -0.511    -2.010    -0.316
  34      -1.277    -0.853     2.130    -0.939    -1.059    -0.035
  35      -1.719     0.932     0.787     0.087     1.081    -0.215
  36      -0.007    -1.957     1.964    -0.776     0.592    -0.127
  37       0.668    -0.157    -0.511    -0.545     0.695     0.033
  38       0.139    -1.244     1.105     0.102    -0.263     0.541
  39       0.601     0.490    -1.091    -0.372     0.016    -0.151
  40      -0.457     0.713    -0.256    -0.629    -0.192    -0.689
  41      -1.695     3.851    -2.156    -4.153     1.008    -4.413
  42      -1.143     2.702    -1.559     5.402     2.584     2.423
  43       3.810    -5.779     1.968     0.664    -5.363    -1.346
  44      -2.985     1.236     1.748    -3.934    -1.689     3.074
  45       3.430    -5.710     2.281     1.418     4.965     0.960
  46      -3.401     1.541     1.860     4.538    -3.982    -4.244
  47      -3.106     0.881     2.226    -5.124     1.955    -4.246
  48       5.273    -6.556     1.284     1.946    -5.208     1.483
  49      -3.500     1.467     2.033     5.311     3.214     4.195
  50      -3.194     2.724     0.470    -3.896    -0.625     5.276
  51      -1.525     0.606     0.919     4.911    -1.154    -4.493
  52       5.988    -5.642    -0.346     1.185     4.490     2.525
  53      -4.177     3.906     0.271    -3.349     3.733    -4.485
  54      -3.220     3.602    -0.382     4.653     2.276     3.095
  55       5.954    -5.711    -0.243     0.536    -5.264     0.597
  56      -3.909     4.058    -0.149    -6.692    -2.350     5.048
  57       6.492    -6.391    -0.101     0.979     3.442    -0.076
  58      -1.505     2.735    -1.230     5.320    -0.122    -3.749
  59      -3.697     1.786     1.911    -5.539     0.963    -3.844
  60       4.369    -5.899     1.530    -0.321    -3.509    -0.458
  61      -1.518     0.633     0.885     4.609     0.587     4.757
  62      -4.021     4.458    -0.437    -4.467    -1.904     4.116
  63      -3.875     4.676    -0.801     3.829    -1.614    -2.618
  64       4.212    -5.510     1.297     0.087     4.477     0.293
  65      -3.430     0.731     2.698    -4.527     0.737    -5.266
  66      -2.355     2.353     0.002     5.458     2.385     3.082
  67       5.107    -5.543     0.437     0.332    -5.828     1.152
  68      -3.653     1.922     1.732    -3.784    -2.167     5.282
  69       3.330    -5.965     2.635     0.531     5.726    -1.818
  70      -2.384     2.123     0.260     5.101    -1.481    -3.856
  71      -1.777     0.651     1.125    -4.271     1.338    -5.042
  72       3.490    -6.963     3.472    -1.242    -4.858     1.012
  73      -3.163     0.803     2.360     2.587     3.499     3.405
  74      -2.838     3.196    -0.358    -5.315    -1.655     4.160
  75      -2.816     1.492     1.324     3.470    -3.520    -3.823
  76       2.589    -6.235     3.646    -1.229     5.632     0.613
  77      -2.456     4.330    -1.874    -5.486     2.119    -3.607
  78      -4.971     1.640     3.332     3.960     2.919     4.910
  79       5.547    -5.183    -0.363    -0.592    -3.749     1.990
  80      -4.314     4.348    -0.034    -3.865    -0.521     4.380
  81       5.275    -6.929     1.654    -2.436     4.301     0.189
  82      -4.552     3.636     0.916     4.112    -0.932    -6.054
  83      -3.407     3.387     0.020    -5.409     0.722    -3.760
  84       4.493    -6.140     1.647    -3.388    -5.644     0.459
  85      -3.815     3.241     0.575     4.485     1.260     5.198
  86      -4.340     3.959     0.381    -4.626    -1.400     4.378
  87      -4.294     3.854     0.440     4.362    -1.882    -4.440
  88       7.310    -5.144    -2.166    -0.466     3.811    -2.205
 ---------------------------------------------------------------------


 Total hyperfine coupling parameters after diagonalization (MHz)
 (convention: |A_zz| > |A_xx| > |A_yy|)
 ----------------------------------------------------------------------
  ion      A_xx      A_yy      A_zz     asymmetry (A_yy - A_xx)/ A_zz 
 ----------------------------------------------------------------------
   1       1.734     1.460     3.787      -0.072
   2       1.183     0.614     3.353      -0.170
   3       2.327     1.942     4.365      -0.088
   4      -0.357    -0.103     2.619       0.097
   5      -0.305     0.048     2.784       0.127
   6       0.586     0.420     3.116      -0.053
   7       1.915     1.346     4.204      -0.135
   8       0.274    -0.002     2.910      -0.095
   9       0.172    -0.058     2.908      -0.079
  10       1.457     1.145     3.320      -0.094
  11       2.701     2.239     4.790      -0.096
  12       1.816     1.447     3.683      -0.100
  13       2.381     2.046     4.357      -0.077
  14       2.531     2.066     4.431      -0.105
  15       1.872     1.512     3.950      -0.091
  16       0.375    -0.187     2.832      -0.198
  17      14.977    10.612    15.447      -0.283
  18      14.347    10.058    14.652      -0.293
  19      14.398     9.988    14.583      -0.302
  20      13.924     9.591    14.171      -0.306
  21      13.824     9.597    14.173      -0.298
  22      15.085    10.780    15.617      -0.276
  23      15.188    10.818    15.398      -0.284
  24      14.108     9.889    14.446      -0.292
  25      99.608    98.647   100.871      -0.010
  26      95.141    93.738    97.180      -0.014
  27      95.112    93.264    97.023      -0.019
  28      95.582    93.427    97.292      -0.022
  29     100.339    97.619   102.367      -0.027
  30      94.714    94.022    95.414      -0.007
  31     104.406    99.895   106.210      -0.042
  32      97.859    96.573    99.977      -0.013
  33      98.227    95.166   102.438      -0.030
  34      95.003    93.049    97.698      -0.020
  35      99.615    96.633   100.038      -0.030
  36      96.429    94.125    98.512      -0.023
  37      96.957    96.256    98.360      -0.007
  38      99.869    98.384   101.035      -0.015
  39      93.094    91.811    93.843      -0.014
  40      96.060    95.176    97.437      -0.009
  41       4.110     1.920    14.979      -0.146
  42       3.747     1.243    14.202      -0.176
  43       5.573     2.007    16.486      -0.216
  44       4.257    -0.132    11.504      -0.382
  45       3.730    -0.072    13.923      -0.273
  46       5.851     1.950    17.245      -0.226
  47       7.461     2.119    16.872      -0.317
  48       8.339     2.014    18.517      -0.342
  49       3.395    -1.533    14.272      -0.345
  50       4.907     1.130    15.113      -0.250
  51       6.999     2.098    15.693      -0.312
  52       4.094    -0.613    14.738      -0.319
  53       4.111     0.144    15.287      -0.260
  54       3.253    -0.365    13.048      -0.277
  55       3.794     0.876    15.783      -0.185
  56       7.882     3.086    21.539      -0.223
  57       5.290     0.333    14.833      -0.334
  58       6.512     1.846    15.478      -0.301
  59       9.701     2.787    17.822      -0.388
  60       7.430     2.245    14.940      -0.347
  61       7.777     2.378    15.848      -0.341
  62       6.389     3.141    17.726      -0.183
  63       4.684     1.110    13.808      -0.259
  64       3.741     0.161    13.153      -0.272
  65       6.582     0.779    15.944      -0.364
  66       7.969     3.906    17.735      -0.229
  67       2.161    -0.901    14.219      -0.215
  68       4.427     1.769    15.964      -0.167
  69       6.038     1.350    16.849      -0.278
  70       4.834     0.768    14.301      -0.284
  71       5.526     1.459    14.949      -0.272
  72       5.827     0.068    15.703      -0.367
  73       3.980     0.845    12.831      -0.244
  74       4.649     1.078    15.626      -0.229
  75       5.916     3.163    15.910      -0.173
  76       6.750     2.198    17.649      -0.258
  77       3.947     1.908    16.423      -0.124
  78       4.669     0.038    16.014      -0.289
  79       6.043     1.660    15.136      -0.290
  80       5.205     1.209    15.351      -0.260
  81       5.482    -1.189    14.712      -0.453
  82       6.880     2.969    19.207      -0.204
  83       7.475     2.229    16.924      -0.310
  84       5.399     0.208    16.991      -0.306
  85       5.214     1.437    16.500      -0.229
  86       6.636     2.303    17.333      -0.250
  87       6.926     3.147    17.936      -0.211
  88      -2.233     1.977    13.002       0.324
 ---------------------------------------------------------------------



--------------------------------------------------------------------------------------------------------


 stress matrix after NEB project (eV)
    -42.51832      2.64159      2.10998
      2.63483    -40.94262     -0.04103
      2.10393     -0.05561    -54.91615
  FORCES: max atom, RMS     2.573151    1.193482
  FORCE total and by dimension   11.195856    2.095755
  Stress total and by dimension   80.763193   54.916154
     LOOP+:  cpu time  740.8681: real time  743.1893
    4ORBIT:  cpu time    0.0000: real time    0.0000
 


 total charge     
 
# of ion       s       p       d       tot
------------------------------------------
    1        0.047   5.989   0.000   6.037
    2        0.045   5.987   0.000   6.033
    3        0.049   5.991   0.000   6.040
    4        0.051   5.995   0.000   6.046
    5        0.055   6.000   0.000   6.055
    6        0.044   5.987   0.000   6.031
    7        0.049   5.991   0.000   6.040
    8        0.049   5.992   0.000   6.041
    9        0.053   5.998   0.000   6.051
   10        0.049   5.991   0.000   6.041
   11        0.051   5.992   0.000   6.043
   12        0.048   5.990   0.000   6.039
   13        0.052   5.995   0.000   6.046
   14        0.048   5.990   0.000   6.037
   15        0.051   5.994   0.000   6.045
   16        0.053   5.995   0.000   6.048
   17        0.157   6.142   0.095   6.394
   18        0.150   6.131   0.086   6.368
   19        0.150   6.131   0.087   6.368
   20        0.149   6.129   0.085   6.364
   21        0.151   6.131   0.086   6.368
   22        0.152   6.133   0.089   6.374
   23        0.147   6.124   0.081   6.352
   24        0.145   6.121   0.079   6.344
   25        0.354   6.408   4.788  11.550
   26        0.373   6.452   4.832  11.656
   27        0.390   6.484   4.870  11.744
   28        0.371   6.444   4.820  11.634
   29        0.367   6.436   4.814  11.617
   30        0.392   6.487   4.876  11.755
   31        0.365   6.431   4.813  11.609
   32        0.386   6.475   4.861  11.722
   33        0.390   6.480   4.865  11.734
   34        0.386   6.477   4.848  11.711
   35        0.368   6.439   4.809  11.616
   36        0.379   6.465   4.837  11.681
   37        0.380   6.467   4.848  11.695
   38        0.382   6.469   4.846  11.698
   39        0.383   6.472   4.847  11.702
   40        0.386   6.478   4.856  11.720
   41        1.599   3.483   0.000   5.082
   42        1.599   3.484   0.000   5.083
   43        1.596   3.514   0.000   5.110
   44        1.595   3.494   0.000   5.088
   45        1.596   3.493   0.000   5.089
   46        1.598   3.474   0.000   5.072
   47        1.600   3.524   0.000   5.124
   48        1.599   3.518   0.000   5.118
   49        1.597   3.478   0.000   5.075
   50        1.601   3.526   0.000   5.127
   51        1.603   3.538   0.000   5.140
   52        1.597   3.501   0.000   5.098
   53        1.603   3.509   0.000   5.112
   54        1.599   3.479   0.000   5.078
   55        1.601   3.514   0.000   5.115
   56        1.603   3.515   0.000   5.118
   57        1.598   3.510   0.000   5.108
   58        1.600   3.503   0.000   5.103
   59        1.599   3.538   0.000   5.137
   60        1.600   3.564   0.000   5.164
   61        1.597   3.500   0.000   5.097
   62        1.601   3.541   0.000   5.142
   63        1.599   3.508   0.000   5.107
   64        1.596   3.527   0.000   5.123
   65        1.600   3.520   0.000   5.120
   66        1.601   3.505   0.000   5.105
   67        1.597   3.482   0.000   5.079
   68        1.599   3.499   0.000   5.098
   69        1.601   3.547   0.000   5.147
   70        1.599   3.492   0.000   5.091
   71        1.599   3.515   0.000   5.114
   72        1.598   3.519   0.000   5.117
   73        1.598   3.529   0.000   5.128
   74        1.598   3.467   0.000   5.064
   75        1.598   3.495   0.000   5.093
   76        1.598   3.539   0.000   5.137
   77        1.599   3.468   0.000   5.067
   78        1.601   3.538   0.000   5.139
   79        1.597   3.514   0.000   5.111
   80        1.599   3.508   0.000   5.107
   81        1.597   3.503   0.000   5.100
   82        1.603   3.497   0.000   5.100
   83        1.600   3.522   0.000   5.122
   84        1.598   3.509   0.000   5.107
   85        1.602   3.495   0.000   5.097
   86        1.601   3.509   0.000   5.110
   87        1.600   3.513   0.000   5.113
   88        1.597   3.468   0.000   5.065
--------------------------------------------------
tot         84.803 416.670  78.117 579.589
 


 magnetization (x)
 
# of ion       s       p       d       tot
------------------------------------------
    1        0.002  -0.000   0.000   0.002
    2        0.001   0.000   0.000   0.002
    3        0.002   0.000   0.000   0.003
    4        0.001   0.000   0.000   0.001
    5        0.001   0.000   0.000   0.001
    6        0.001   0.001   0.000   0.002
    7        0.002   0.001   0.000   0.002
    8        0.001   0.000   0.000   0.001
    9        0.001   0.000   0.000   0.001
   10        0.001  -0.000   0.000   0.001
   11        0.002   0.000   0.000   0.003
   12        0.002   0.000   0.000   0.002
   13        0.002   0.000   0.000   0.002
   14        0.002   0.001   0.000   0.003
   15        0.002   0.000   0.000   0.002
   16        0.001   0.000   0.000   0.001
   17        0.007   0.003   0.001   0.011
   18        0.007   0.002   0.001   0.011
   19        0.007   0.002   0.001   0.011
   20        0.007   0.002   0.001   0.011
   21        0.007   0.002   0.001   0.010
   22        0.008   0.003   0.001   0.012
   23        0.008   0.003   0.001   0.012
   24        0.007   0.002   0.001   0.011
   25        0.016   0.030   2.813   2.859
   26        0.015   0.029   2.758   2.801
   27        0.015   0.030   2.724   2.768
   28        0.015   0.029   2.769   2.813
   29        0.016   0.031   2.771   2.818
   30        0.015   0.030   2.719   2.764
   31        0.017   0.031   2.782   2.831
   32        0.016   0.032   2.725   2.773
   33        0.016   0.030   2.728   2.774
   34        0.015   0.030   2.736   2.780
   35        0.016   0.030   2.777   2.823
   36        0.015   0.029   2.752   2.797
   37        0.016   0.031   2.734   2.781
   38        0.016   0.032   2.739   2.787
   39        0.014   0.030   2.730   2.774
   40        0.015   0.031   2.725   2.772
   41        0.002   0.013   0.000   0.015
   42        0.002   0.013   0.000   0.015
   43        0.002   0.045   0.000   0.047
   44        0.002   0.016   0.000   0.018
   45        0.002   0.022   0.000   0.024
   46        0.002   0.025   0.000   0.027
   47        0.002   0.050   0.000   0.052
   48        0.002   0.051   0.000   0.054
   49        0.002   0.017   0.000   0.019
   50        0.002   0.033   0.000   0.034
   51        0.002   0.039   0.000   0.041
   52        0.002   0.026   0.000   0.028
   53        0.002   0.020   0.000   0.022
   54        0.002   0.009   0.000   0.010
   55        0.002   0.034   0.000   0.036
   56        0.003   0.063   0.000   0.066
   57        0.002   0.029   0.000   0.030
   58        0.002   0.036   0.000   0.038
   59        0.002   0.064   0.000   0.067
   60        0.002   0.047   0.000   0.049
   61        0.002   0.034   0.000   0.037
   62        0.002   0.045   0.000   0.048
   63        0.002   0.024   0.000   0.026
   64        0.001   0.028   0.000   0.029
   65        0.002   0.043   0.000   0.045
   66        0.002   0.048   0.000   0.050
   67        0.002   0.010   0.000   0.012
   68        0.002   0.037   0.000   0.039
   69        0.002   0.050   0.000   0.052
   70        0.002   0.028   0.000   0.030
   71        0.002   0.037   0.000   0.039
   72        0.002   0.038   0.000   0.040
   73        0.002   0.025   0.000   0.027
   74        0.002   0.017   0.000   0.019
   75        0.002   0.038   0.000   0.040
   76        0.002   0.056   0.000   0.058
   77        0.002   0.026   0.000   0.028
   78        0.002   0.042   0.000   0.044
   79        0.002   0.031   0.000   0.033
   80        0.002   0.035   0.000   0.036
   81        0.002   0.031   0.000   0.032
   82        0.002   0.049   0.000   0.052
   83        0.002   0.049   0.000   0.051
   84        0.002   0.033   0.000   0.035
   85        0.002   0.031   0.000   0.033
   86        0.002   0.048   0.000   0.050
   87        0.002   0.052   0.000   0.054
   88        0.002  -0.003   0.000  -0.001
--------------------------------------------------
tot          0.423   2.144  43.993  46.560
 

 total amount of memory used by VASP MPI-rank0   104120. kBytes
=======================================================================

   base      :      30000. kBytes
   nonlr-proj:      13678. kBytes
   fftplans  :       1316. kBytes
   grid      :      22786. kBytes
   one-center:       2737. kBytes
   wavefun   :      33603. kBytes
 
  
  
 General timing and accounting informations for this job:
 ========================================================
  
                  Total CPU time used (sec):      754.245
                            User time (sec):      749.842
                          System time (sec):        4.404
                         Elapsed time (sec):      757.901
  
                   Maximum memory used (kb):      197128.
                   Average memory used (kb):           0.
  
                          Minor page faults:       312529
                          Major page faults:            0
                 Voluntary context switches:         4287
